+ 1 1 2 cbr 1000 ------- 3 1.0 3.0 0 0
- 1 1 2 cbr 1000 ------- 3 1.0 3.0 0 0
+ 1.005 1 2 cbr 1000 ------- 3 1.0 3.0 1 1
- 1.005 1 2 cbr 1000 ------- 3 1.0 3.0 1 1
+ 1.01 1 2 cbr 1000 ------- 3 1.0 3.0 2 2
- 1.01 1 2 cbr 1000 ------- 3 1.0 3.0 2 2
r 1.014 1 2 cbr 1000 ------- 3 1.0 3.0 0 0
+ 1.014 2 3 cbr 1000 ------- 3 1.0 3.0 0 0
- 1.014 2 3 cbr 1000 ------- 3 1.0 3.0 0 0
+ 1.015 1 2 cbr 1000 ------- 3 1.0 3.0 3 3
- 1.015 1 2 cbr 1000 ------- 3 1.0 3.0 3 3
r 1.019 1 2 cbr 1000 ------- 3 1.0 3.0 1 1
+ 1.019 2 3 cbr 1000 ------- 3 1.0 3.0 1 1
- 1.019333 2 3 cbr 1000 ------- 3 1.0 3.0 1 1
+ 1.02 1 2 cbr 1000 ------- 3 1.0 3.0 4 4
- 1.02 1 2 cbr 1000 ------- 3 1.0 3.0 4 4
r 1.024 1 2 cbr 1000 ------- 3 1.0 3.0 2 2
+ 1.024 2 3 cbr 1000 ------- 3 1.0 3.0 2 2
- 1.024667 2 3 cbr 1000 ------- 3 1.0 3.0 2 2
+ 1.025 1 2 cbr 1000 ------- 3 1.0 3.0 5 5
- 1.025 1 2 cbr 1000 ------- 3 1.0 3.0 5 5
r 1.029 1 2 cbr 1000 ------- 3 1.0 3.0 3 3
+ 1.029 2 3 cbr 1000 ------- 3 1.0 3.0 3 3
+ 1.03 1 2 cbr 1000 ------- 3 1.0 3.0 6 6
- 1.03 1 2 cbr 1000 ------- 3 1.0 3.0 6 6
- 1.03 2 3 cbr 1000 ------- 3 1.0 3.0 3 3
r 1.034 1 2 cbr 1000 ------- 3 1.0 3.0 4 4
+ 1.034 2 3 cbr 1000 ------- 3 1.0 3.0 4 4
+ 1.035 1 2 cbr 1000 ------- 3 1.0 3.0 7 7
- 1.035 1 2 cbr 1000 ------- 3 1.0 3.0 7 7
- 1.035333 2 3 cbr 1000 ------- 3 1.0 3.0 4 4
r 1.039 1 2 cbr 1000 ------- 3 1.0 3.0 5 5
+ 1.039 2 3 cbr 1000 ------- 3 1.0 3.0 5 5
r 1.039333 2 3 cbr 1000 ------- 3 1.0 3.0 0 0
+ 1.04 1 2 cbr 1000 ------- 3 1.0 3.0 8 8
- 1.04 1 2 cbr 1000 ------- 3 1.0 3.0 8 8
- 1.040667 2 3 cbr 1000 ------- 3 1.0 3.0 5 5
r 1.044 1 2 cbr 1000 ------- 3 1.0 3.0 6 6
+ 1.044 2 3 cbr 1000 ------- 3 1.0 3.0 6 6
r 1.044667 2 3 cbr 1000 ------- 3 1.0 3.0 1 1
+ 1.045 1 2 cbr 1000 ------- 3 1.0 3.0 9 9
- 1.045 1 2 cbr 1000 ------- 3 1.0 3.0 9 9
- 1.046 2 3 cbr 1000 ------- 3 1.0 3.0 6 6
r 1.049 1 2 cbr 1000 ------- 3 1.0 3.0 7 7
+ 1.049 2 3 cbr 1000 ------- 3 1.0 3.0 7 7
+ 1.05 1 2 cbr 1000 ------- 3 1.0 3.0 10 10
- 1.05 1 2 cbr 1000 ------- 3 1.0 3.0 10 10
r 1.05 2 3 cbr 1000 ------- 3 1.0 3.0 2 2
- 1.051333 2 3 cbr 1000 ------- 3 1.0 3.0 7 7
r 1.054 1 2 cbr 1000 ------- 3 1.0 3.0 8 8
+ 1.054 2 3 cbr 1000 ------- 3 1.0 3.0 8 8
+ 1.055 1 2 cbr 1000 ------- 3 1.0 3.0 11 11
- 1.055 1 2 cbr 1000 ------- 3 1.0 3.0 11 11
r 1.055333 2 3 cbr 1000 ------- 3 1.0 3.0 3 3
- 1.056667 2 3 cbr 1000 ------- 3 1.0 3.0 8 8
r 1.059 1 2 cbr 1000 ------- 3 1.0 3.0 9 9
+ 1.059 2 3 cbr 1000 ------- 3 1.0 3.0 9 9
+ 1.06 1 2 cbr 1000 ------- 3 1.0 3.0 12 12
- 1.06 1 2 cbr 1000 ------- 3 1.0 3.0 12 12
r 1.060667 2 3 cbr 1000 ------- 3 1.0 3.0 4 4
- 1.062 2 3 cbr 1000 ------- 3 1.0 3.0 9 9
r 1.064 1 2 cbr 1000 ------- 3 1.0 3.0 10 10
+ 1.064 2 3 cbr 1000 ------- 3 1.0 3.0 10 10
+ 1.065 1 2 cbr 1000 ------- 3 1.0 3.0 13 13
- 1.065 1 2 cbr 1000 ------- 3 1.0 3.0 13 13
r 1.066 2 3 cbr 1000 ------- 3 1.0 3.0 5 5
- 1.067333 2 3 cbr 1000 ------- 3 1.0 3.0 10 10
r 1.069 1 2 cbr 1000 ------- 3 1.0 3.0 11 11
+ 1.069 2 3 cbr 1000 ------- 3 1.0 3.0 11 11
+ 1.07 1 2 cbr 1000 ------- 3 1.0 3.0 14 14
- 1.07 1 2 cbr 1000 ------- 3 1.0 3.0 14 14
r 1.071333 2 3 cbr 1000 ------- 3 1.0 3.0 6 6
- 1.072667 2 3 cbr 1000 ------- 3 1.0 3.0 11 11
r 1.074 1 2 cbr 1000 ------- 3 1.0 3.0 12 12
+ 1.074 2 3 cbr 1000 ------- 3 1.0 3.0 12 12
+ 1.075 1 2 cbr 1000 ------- 3 1.0 3.0 15 15
- 1.075 1 2 cbr 1000 ------- 3 1.0 3.0 15 15
r 1.076667 2 3 cbr 1000 ------- 3 1.0 3.0 7 7
- 1.078 2 3 cbr 1000 ------- 3 1.0 3.0 12 12
r 1.079 1 2 cbr 1000 ------- 3 1.0 3.0 13 13
+ 1.079 2 3 cbr 1000 ------- 3 1.0 3.0 13 13
+ 1.08 1 2 cbr 1000 ------- 3 1.0 3.0 16 16
- 1.08 1 2 cbr 1000 ------- 3 1.0 3.0 16 16
r 1.082 2 3 cbr 1000 ------- 3 1.0 3.0 8 8
- 1.083333 2 3 cbr 1000 ------- 3 1.0 3.0 13 13
r 1.084 1 2 cbr 1000 ------- 3 1.0 3.0 14 14
+ 1.084 2 3 cbr 1000 ------- 3 1.0 3.0 14 14
+ 1.085 1 2 cbr 1000 ------- 3 1.0 3.0 17 17
- 1.085 1 2 cbr 1000 ------- 3 1.0 3.0 17 17
r 1.087333 2 3 cbr 1000 ------- 3 1.0 3.0 9 9
- 1.088667 2 3 cbr 1000 ------- 3 1.0 3.0 14 14
r 1.089 1 2 cbr 1000 ------- 3 1.0 3.0 15 15
+ 1.089 2 3 cbr 1000 ------- 3 1.0 3.0 15 15
+ 1.09 1 2 cbr 1000 ------- 3 1.0 3.0 18 18
- 1.09 1 2 cbr 1000 ------- 3 1.0 3.0 18 18
r 1.092667 2 3 cbr 1000 ------- 3 1.0 3.0 10 10
r 1.094 1 2 cbr 1000 ------- 3 1.0 3.0 16 16
+ 1.094 2 3 cbr 1000 ------- 3 1.0 3.0 16 16
- 1.094 2 3 cbr 1000 ------- 3 1.0 3.0 15 15
+ 1.095 1 2 cbr 1000 ------- 3 1.0 3.0 19 19
- 1.095 1 2 cbr 1000 ------- 3 1.0 3.0 19 19
r 1.098 2 3 cbr 1000 ------- 3 1.0 3.0 11 11
r 1.099 1 2 cbr 1000 ------- 3 1.0 3.0 17 17
+ 1.099 2 3 cbr 1000 ------- 3 1.0 3.0 17 17
- 1.099333 2 3 cbr 1000 ------- 3 1.0 3.0 16 16
+ 1.1 1 2 cbr 1000 ------- 3 1.0 3.0 20 20
- 1.1 1 2 cbr 1000 ------- 3 1.0 3.0 20 20
r 1.103333 2 3 cbr 1000 ------- 3 1.0 3.0 12 12
r 1.104 1 2 cbr 1000 ------- 3 1.0 3.0 18 18
+ 1.104 2 3 cbr 1000 ------- 3 1.0 3.0 18 18
- 1.104667 2 3 cbr 1000 ------- 3 1.0 3.0 17 17
+ 1.105 1 2 cbr 1000 ------- 3 1.0 3.0 21 21
- 1.105 1 2 cbr 1000 ------- 3 1.0 3.0 21 21
r 1.108667 2 3 cbr 1000 ------- 3 1.0 3.0 13 13
r 1.109 1 2 cbr 1000 ------- 3 1.0 3.0 19 19
+ 1.109 2 3 cbr 1000 ------- 3 1.0 3.0 19 19
+ 1.11 1 2 cbr 1000 ------- 3 1.0 3.0 22 22
- 1.11 1 2 cbr 1000 ------- 3 1.0 3.0 22 22
- 1.11 2 3 cbr 1000 ------- 3 1.0 3.0 18 18
r 1.114 1 2 cbr 1000 ------- 3 1.0 3.0 20 20
+ 1.114 2 3 cbr 1000 ------- 3 1.0 3.0 20 20
r 1.114 2 3 cbr 1000 ------- 3 1.0 3.0 14 14
+ 1.115 1 2 cbr 1000 ------- 3 1.0 3.0 23 23
- 1.115 1 2 cbr 1000 ------- 3 1.0 3.0 23 23
- 1.115333 2 3 cbr 1000 ------- 3 1.0 3.0 19 19
r 1.119 1 2 cbr 1000 ------- 3 1.0 3.0 21 21
+ 1.119 2 3 cbr 1000 ------- 3 1.0 3.0 21 21
r 1.119333 2 3 cbr 1000 ------- 3 1.0 3.0 15 15
+ 1.12 1 2 cbr 1000 ------- 3 1.0 3.0 24 24
- 1.12 1 2 cbr 1000 ------- 3 1.0 3.0 24 24
- 1.120667 2 3 cbr 1000 ------- 3 1.0 3.0 20 20
r 1.124 1 2 cbr 1000 ------- 3 1.0 3.0 22 22
+ 1.124 2 3 cbr 1000 ------- 3 1.0 3.0 22 22
r 1.124667 2 3 cbr 1000 ------- 3 1.0 3.0 16 16
+ 1.125 1 2 cbr 1000 ------- 3 1.0 3.0 25 25
- 1.125 1 2 cbr 1000 ------- 3 1.0 3.0 25 25
- 1.126 2 3 cbr 1000 ------- 3 1.0 3.0 21 21
r 1.129 1 2 cbr 1000 ------- 3 1.0 3.0 23 23
+ 1.129 2 3 cbr 1000 ------- 3 1.0 3.0 23 23
+ 1.13 1 2 cbr 1000 ------- 3 1.0 3.0 26 26
- 1.13 1 2 cbr 1000 ------- 3 1.0 3.0 26 26
r 1.13 2 3 cbr 1000 ------- 3 1.0 3.0 17 17
- 1.131333 2 3 cbr 1000 ------- 3 1.0 3.0 22 22
r 1.134 1 2 cbr 1000 ------- 3 1.0 3.0 24 24
+ 1.134 2 3 cbr 1000 ------- 3 1.0 3.0 24 24
+ 1.135 1 2 cbr 1000 ------- 3 1.0 3.0 27 27
- 1.135 1 2 cbr 1000 ------- 3 1.0 3.0 27 27
r 1.135333 2 3 cbr 1000 ------- 3 1.0 3.0 18 18
- 1.136667 2 3 cbr 1000 ------- 3 1.0 3.0 23 23
r 1.139 1 2 cbr 1000 ------- 3 1.0 3.0 25 25
+ 1.139 2 3 cbr 1000 ------- 3 1.0 3.0 25 25
+ 1.14 1 2 cbr 1000 ------- 3 1.0 3.0 28 28
- 1.14 1 2 cbr 1000 ------- 3 1.0 3.0 28 28
r 1.140667 2 3 cbr 1000 ------- 3 1.0 3.0 19 19
- 1.142 2 3 cbr 1000 ------- 3 1.0 3.0 24 24
r 1.144 1 2 cbr 1000 ------- 3 1.0 3.0 26 26
+ 1.144 2 3 cbr 1000 ------- 3 1.0 3.0 26 26
+ 1.145 1 2 cbr 1000 ------- 3 1.0 3.0 29 29
- 1.145 1 2 cbr 1000 ------- 3 1.0 3.0 29 29
r 1.146 2 3 cbr 1000 ------- 3 1.0 3.0 20 20
- 1.147333 2 3 cbr 1000 ------- 3 1.0 3.0 25 25
r 1.149 1 2 cbr 1000 ------- 3 1.0 3.0 27 27
+ 1.149 2 3 cbr 1000 ------- 3 1.0 3.0 27 27
+ 1.15 1 2 cbr 1000 ------- 3 1.0 3.0 30 30
- 1.15 1 2 cbr 1000 ------- 3 1.0 3.0 30 30
r 1.151333 2 3 cbr 1000 ------- 3 1.0 3.0 21 21
- 1.152667 2 3 cbr 1000 ------- 3 1.0 3.0 26 26
r 1.154 1 2 cbr 1000 ------- 3 1.0 3.0 28 28
+ 1.154 2 3 cbr 1000 ------- 3 1.0 3.0 28 28
+ 1.155 1 2 cbr 1000 ------- 3 1.0 3.0 31 31
- 1.155 1 2 cbr 1000 ------- 3 1.0 3.0 31 31
r 1.156667 2 3 cbr 1000 ------- 3 1.0 3.0 22 22
- 1.158 2 3 cbr 1000 ------- 3 1.0 3.0 27 27
r 1.159 1 2 cbr 1000 ------- 3 1.0 3.0 29 29
+ 1.159 2 3 cbr 1000 ------- 3 1.0 3.0 29 29
+ 1.16 1 2 cbr 1000 ------- 3 1.0 3.0 32 32
- 1.16 1 2 cbr 1000 ------- 3 1.0 3.0 32 32
r 1.162 2 3 cbr 1000 ------- 3 1.0 3.0 23 23
- 1.163333 2 3 cbr 1000 ------- 3 1.0 3.0 28 28
r 1.164 1 2 cbr 1000 ------- 3 1.0 3.0 30 30
+ 1.164 2 3 cbr 1000 ------- 3 1.0 3.0 30 30
+ 1.165 1 2 cbr 1000 ------- 3 1.0 3.0 33 33
- 1.165 1 2 cbr 1000 ------- 3 1.0 3.0 33 33
r 1.167333 2 3 cbr 1000 ------- 3 1.0 3.0 24 24
- 1.168667 2 3 cbr 1000 ------- 3 1.0 3.0 29 29
r 1.169 1 2 cbr 1000 ------- 3 1.0 3.0 31 31
+ 1.169 2 3 cbr 1000 ------- 3 1.0 3.0 31 31
+ 1.17 1 2 cbr 1000 ------- 3 1.0 3.0 34 34
- 1.17 1 2 cbr 1000 ------- 3 1.0 3.0 34 34
r 1.172667 2 3 cbr 1000 ------- 3 1.0 3.0 25 25
r 1.174 1 2 cbr 1000 ------- 3 1.0 3.0 32 32
+ 1.174 2 3 cbr 1000 ------- 3 1.0 3.0 32 32
- 1.174 2 3 cbr 1000 ------- 3 1.0 3.0 30 30
+ 1.175 1 2 cbr 1000 ------- 3 1.0 3.0 35 35
- 1.175 1 2 cbr 1000 ------- 3 1.0 3.0 35 35
r 1.178 2 3 cbr 1000 ------- 3 1.0 3.0 26 26
r 1.179 1 2 cbr 1000 ------- 3 1.0 3.0 33 33
+ 1.179 2 3 cbr 1000 ------- 3 1.0 3.0 33 33
- 1.179333 2 3 cbr 1000 ------- 3 1.0 3.0 31 31
+ 1.18 1 2 cbr 1000 ------- 3 1.0 3.0 36 36
- 1.18 1 2 cbr 1000 ------- 3 1.0 3.0 36 36
r 1.183333 2 3 cbr 1000 ------- 3 1.0 3.0 27 27
r 1.184 1 2 cbr 1000 ------- 3 1.0 3.0 34 34
+ 1.184 2 3 cbr 1000 ------- 3 1.0 3.0 34 34
- 1.184667 2 3 cbr 1000 ------- 3 1.0 3.0 32 32
+ 1.185 1 2 cbr 1000 ------- 3 1.0 3.0 37 37
- 1.185 1 2 cbr 1000 ------- 3 1.0 3.0 37 37
r 1.188667 2 3 cbr 1000 ------- 3 1.0 3.0 28 28
r 1.189 1 2 cbr 1000 ------- 3 1.0 3.0 35 35
+ 1.189 2 3 cbr 1000 ------- 3 1.0 3.0 35 35
+ 1.19 1 2 cbr 1000 ------- 3 1.0 3.0 38 38
- 1.19 1 2 cbr 1000 ------- 3 1.0 3.0 38 38
- 1.19 2 3 cbr 1000 ------- 3 1.0 3.0 33 33
r 1.194 1 2 cbr 1000 ------- 3 1.0 3.0 36 36
+ 1.194 2 3 cbr 1000 ------- 3 1.0 3.0 36 36
r 1.194 2 3 cbr 1000 ------- 3 1.0 3.0 29 29
+ 1.195 1 2 cbr 1000 ------- 3 1.0 3.0 39 39
- 1.195 1 2 cbr 1000 ------- 3 1.0 3.0 39 39
- 1.195333 2 3 cbr 1000 ------- 3 1.0 3.0 34 34
r 1.199 1 2 cbr 1000 ------- 3 1.0 3.0 37 37
+ 1.199 2 3 cbr 1000 ------- 3 1.0 3.0 37 37
r 1.199333 2 3 cbr 1000 ------- 3 1.0 3.0 30 30
+ 1.2 1 2 cbr 1000 ------- 3 1.0 3.0 40 40
- 1.2 1 2 cbr 1000 ------- 3 1.0 3.0 40 40
- 1.200667 2 3 cbr 1000 ------- 3 1.0 3.0 35 35
r 1.204 1 2 cbr 1000 ------- 3 1.0 3.0 38 38
+ 1.204 2 3 cbr 1000 ------- 3 1.0 3.0 38 38
r 1.204667 2 3 cbr 1000 ------- 3 1.0 3.0 31 31
+ 1.205 1 2 cbr 1000 ------- 3 1.0 3.0 41 41
- 1.205 1 2 cbr 1000 ------- 3 1.0 3.0 41 41
- 1.206 2 3 cbr 1000 ------- 3 1.0 3.0 36 36
r 1.209 1 2 cbr 1000 ------- 3 1.0 3.0 39 39
+ 1.209 2 3 cbr 1000 ------- 3 1.0 3.0 39 39
+ 1.21 1 2 cbr 1000 ------- 3 1.0 3.0 42 42
- 1.21 1 2 cbr 1000 ------- 3 1.0 3.0 42 42
r 1.21 2 3 cbr 1000 ------- 3 1.0 3.0 32 32
- 1.211333 2 3 cbr 1000 ------- 3 1.0 3.0 37 37
r 1.214 1 2 cbr 1000 ------- 3 1.0 3.0 40 40
+ 1.214 2 3 cbr 1000 ------- 3 1.0 3.0 40 40
+ 1.215 1 2 cbr 1000 ------- 3 1.0 3.0 43 43
- 1.215 1 2 cbr 1000 ------- 3 1.0 3.0 43 43
r 1.215333 2 3 cbr 1000 ------- 3 1.0 3.0 33 33
- 1.216667 2 3 cbr 1000 ------- 3 1.0 3.0 38 38
r 1.219 1 2 cbr 1000 ------- 3 1.0 3.0 41 41
+ 1.219 2 3 cbr 1000 ------- 3 1.0 3.0 41 41
+ 1.22 1 2 cbr 1000 ------- 3 1.0 3.0 44 44
- 1.22 1 2 cbr 1000 ------- 3 1.0 3.0 44 44
r 1.220667 2 3 cbr 1000 ------- 3 1.0 3.0 34 34
- 1.222 2 3 cbr 1000 ------- 3 1.0 3.0 39 39
r 1.224 1 2 cbr 1000 ------- 3 1.0 3.0 42 42
+ 1.224 2 3 cbr 1000 ------- 3 1.0 3.0 42 42
+ 1.225 1 2 cbr 1000 ------- 3 1.0 3.0 45 45
- 1.225 1 2 cbr 1000 ------- 3 1.0 3.0 45 45
r 1.226 2 3 cbr 1000 ------- 3 1.0 3.0 35 35
- 1.227333 2 3 cbr 1000 ------- 3 1.0 3.0 40 40
r 1.229 1 2 cbr 1000 ------- 3 1.0 3.0 43 43
+ 1.229 2 3 cbr 1000 ------- 3 1.0 3.0 43 43
+ 1.23 1 2 cbr 1000 ------- 3 1.0 3.0 46 46
- 1.23 1 2 cbr 1000 ------- 3 1.0 3.0 46 46
r 1.231333 2 3 cbr 1000 ------- 3 1.0 3.0 36 36
- 1.232667 2 3 cbr 1000 ------- 3 1.0 3.0 41 41
r 1.234 1 2 cbr 1000 ------- 3 1.0 3.0 44 44
+ 1.234 2 3 cbr 1000 ------- 3 1.0 3.0 44 44
+ 1.235 1 2 cbr 1000 ------- 3 1.0 3.0 47 47
- 1.235 1 2 cbr 1000 ------- 3 1.0 3.0 47 47
r 1.236667 2 3 cbr 1000 ------- 3 1.0 3.0 37 37
- 1.238 2 3 cbr 1000 ------- 3 1.0 3.0 42 42
r 1.239 1 2 cbr 1000 ------- 3 1.0 3.0 45 45
+ 1.239 2 3 cbr 1000 ------- 3 1.0 3.0 45 45
+ 1.24 1 2 cbr 1000 ------- 3 1.0 3.0 48 48
- 1.24 1 2 cbr 1000 ------- 3 1.0 3.0 48 48
r 1.242 2 3 cbr 1000 ------- 3 1.0 3.0 38 38
- 1.243333 2 3 cbr 1000 ------- 3 1.0 3.0 43 43
r 1.244 1 2 cbr 1000 ------- 3 1.0 3.0 46 46
+ 1.244 2 3 cbr 1000 ------- 3 1.0 3.0 46 46
+ 1.245 1 2 cbr 1000 ------- 3 1.0 3.0 49 49
- 1.245 1 2 cbr 1000 ------- 3 1.0 3.0 49 49
r 1.247333 2 3 cbr 1000 ------- 3 1.0 3.0 39 39
- 1.248667 2 3 cbr 1000 ------- 3 1.0 3.0 44 44
r 1.249 1 2 cbr 1000 ------- 3 1.0 3.0 47 47
+ 1.249 2 3 cbr 1000 ------- 3 1.0 3.0 47 47
+ 1.25 1 2 cbr 1000 ------- 3 1.0 3.0 50 50
- 1.25 1 2 cbr 1000 ------- 3 1.0 3.0 50 50
r 1.252667 2 3 cbr 1000 ------- 3 1.0 3.0 40 40
r 1.254 1 2 cbr 1000 ------- 3 1.0 3.0 48 48
+ 1.254 2 3 cbr 1000 ------- 3 1.0 3.0 48 48
- 1.254 2 3 cbr 1000 ------- 3 1.0 3.0 45 45
+ 1.255 1 2 cbr 1000 ------- 3 1.0 3.0 51 51
- 1.255 1 2 cbr 1000 ------- 3 1.0 3.0 51 51
r 1.258 2 3 cbr 1000 ------- 3 1.0 3.0 41 41
r 1.259 1 2 cbr 1000 ------- 3 1.0 3.0 49 49
+ 1.259 2 3 cbr 1000 ------- 3 1.0 3.0 49 49
- 1.259333 2 3 cbr 1000 ------- 3 1.0 3.0 46 46
+ 1.26 1 2 cbr 1000 ------- 3 1.0 3.0 52 52
- 1.26 1 2 cbr 1000 ------- 3 1.0 3.0 52 52
r 1.263333 2 3 cbr 1000 ------- 3 1.0 3.0 42 42
r 1.264 1 2 cbr 1000 ------- 3 1.0 3.0 50 50
+ 1.264 2 3 cbr 1000 ------- 3 1.0 3.0 50 50
- 1.264667 2 3 cbr 1000 ------- 3 1.0 3.0 47 47
+ 1.265 1 2 cbr 1000 ------- 3 1.0 3.0 53 53
- 1.265 1 2 cbr 1000 ------- 3 1.0 3.0 53 53
r 1.268667 2 3 cbr 1000 ------- 3 1.0 3.0 43 43
r 1.269 1 2 cbr 1000 ------- 3 1.0 3.0 51 51
+ 1.269 2 3 cbr 1000 ------- 3 1.0 3.0 51 51
+ 1.27 1 2 cbr 1000 ------- 3 1.0 3.0 54 54
- 1.27 1 2 cbr 1000 ------- 3 1.0 3.0 54 54
- 1.27 2 3 cbr 1000 ------- 3 1.0 3.0 48 48
r 1.274 1 2 cbr 1000 ------- 3 1.0 3.0 52 52
+ 1.274 2 3 cbr 1000 ------- 3 1.0 3.0 52 52
r 1.274 2 3 cbr 1000 ------- 3 1.0 3.0 44 44
+ 1.275 1 2 cbr 1000 ------- 3 1.0 3.0 55 55
- 1.275 1 2 cbr 1000 ------- 3 1.0 3.0 55 55
- 1.275333 2 3 cbr 1000 ------- 3 1.0 3.0 49 49
r 1.279 1 2 cbr 1000 ------- 3 1.0 3.0 53 53
+ 1.279 2 3 cbr 1000 ------- 3 1.0 3.0 53 53
r 1.279333 2 3 cbr 1000 ------- 3 1.0 3.0 45 45
+ 1.28 1 2 cbr 1000 ------- 3 1.0 3.0 56 56
- 1.28 1 2 cbr 1000 ------- 3 1.0 3.0 56 56
- 1.280667 2 3 cbr 1000 ------- 3 1.0 3.0 50 50
r 1.284 1 2 cbr 1000 ------- 3 1.0 3.0 54 54
+ 1.284 2 3 cbr 1000 ------- 3 1.0 3.0 54 54
r 1.284667 2 3 cbr 1000 ------- 3 1.0 3.0 46 46
+ 1.285 1 2 cbr 1000 ------- 3 1.0 3.0 57 57
- 1.285 1 2 cbr 1000 ------- 3 1.0 3.0 57 57
- 1.286 2 3 cbr 1000 ------- 3 1.0 3.0 51 51
r 1.289 1 2 cbr 1000 ------- 3 1.0 3.0 55 55
+ 1.289 2 3 cbr 1000 ------- 3 1.0 3.0 55 55
+ 1.29 1 2 cbr 1000 ------- 3 1.0 3.0 58 58
- 1.29 1 2 cbr 1000 ------- 3 1.0 3.0 58 58
r 1.29 2 3 cbr 1000 ------- 3 1.0 3.0 47 47
- 1.291333 2 3 cbr 1000 ------- 3 1.0 3.0 52 52
r 1.294 1 2 cbr 1000 ------- 3 1.0 3.0 56 56
+ 1.294 2 3 cbr 1000 ------- 3 1.0 3.0 56 56
+ 1.295 1 2 cbr 1000 ------- 3 1.0 3.0 59 59
- 1.295 1 2 cbr 1000 ------- 3 1.0 3.0 59 59
r 1.295333 2 3 cbr 1000 ------- 3 1.0 3.0 48 48
- 1.296667 2 3 cbr 1000 ------- 3 1.0 3.0 53 53
r 1.299 1 2 cbr 1000 ------- 3 1.0 3.0 57 57
+ 1.299 2 3 cbr 1000 ------- 3 1.0 3.0 57 57
+ 1.3 1 2 cbr 1000 ------- 3 1.0 3.0 60 60
- 1.3 1 2 cbr 1000 ------- 3 1.0 3.0 60 60
r 1.300667 2 3 cbr 1000 ------- 3 1.0 3.0 49 49
- 1.302 2 3 cbr 1000 ------- 3 1.0 3.0 54 54
r 1.304 1 2 cbr 1000 ------- 3 1.0 3.0 58 58
+ 1.304 2 3 cbr 1000 ------- 3 1.0 3.0 58 58
+ 1.305 1 2 cbr 1000 ------- 3 1.0 3.0 61 61
- 1.305 1 2 cbr 1000 ------- 3 1.0 3.0 61 61
r 1.306 2 3 cbr 1000 ------- 3 1.0 3.0 50 50
- 1.307333 2 3 cbr 1000 ------- 3 1.0 3.0 55 55
r 1.309 1 2 cbr 1000 ------- 3 1.0 3.0 59 59
+ 1.309 2 3 cbr 1000 ------- 3 1.0 3.0 59 59
+ 1.31 1 2 cbr 1000 ------- 3 1.0 3.0 62 62
- 1.31 1 2 cbr 1000 ------- 3 1.0 3.0 62 62
r 1.311333 2 3 cbr 1000 ------- 3 1.0 3.0 51 51
- 1.312667 2 3 cbr 1000 ------- 3 1.0 3.0 56 56
r 1.314 1 2 cbr 1000 ------- 3 1.0 3.0 60 60
+ 1.314 2 3 cbr 1000 ------- 3 1.0 3.0 60 60
+ 1.315 1 2 cbr 1000 ------- 3 1.0 3.0 63 63
- 1.315 1 2 cbr 1000 ------- 3 1.0 3.0 63 63
r 1.316667 2 3 cbr 1000 ------- 3 1.0 3.0 52 52
- 1.318 2 3 cbr 1000 ------- 3 1.0 3.0 57 57
r 1.319 1 2 cbr 1000 ------- 3 1.0 3.0 61 61
+ 1.319 2 3 cbr 1000 ------- 3 1.0 3.0 61 61
+ 1.32 1 2 cbr 1000 ------- 3 1.0 3.0 64 64
- 1.32 1 2 cbr 1000 ------- 3 1.0 3.0 64 64
r 1.322 2 3 cbr 1000 ------- 3 1.0 3.0 53 53
- 1.323333 2 3 cbr 1000 ------- 3 1.0 3.0 58 58
r 1.324 1 2 cbr 1000 ------- 3 1.0 3.0 62 62
+ 1.324 2 3 cbr 1000 ------- 3 1.0 3.0 62 62
+ 1.325 1 2 cbr 1000 ------- 3 1.0 3.0 65 65
- 1.325 1 2 cbr 1000 ------- 3 1.0 3.0 65 65
r 1.327333 2 3 cbr 1000 ------- 3 1.0 3.0 54 54
- 1.328667 2 3 cbr 1000 ------- 3 1.0 3.0 59 59
r 1.329 1 2 cbr 1000 ------- 3 1.0 3.0 63 63
+ 1.329 2 3 cbr 1000 ------- 3 1.0 3.0 63 63
+ 1.33 1 2 cbr 1000 ------- 3 1.0 3.0 66 66
- 1.33 1 2 cbr 1000 ------- 3 1.0 3.0 66 66
r 1.332667 2 3 cbr 1000 ------- 3 1.0 3.0 55 55
r 1.334 1 2 cbr 1000 ------- 3 1.0 3.0 64 64
+ 1.334 2 3 cbr 1000 ------- 3 1.0 3.0 64 64
- 1.334 2 3 cbr 1000 ------- 3 1.0 3.0 60 60
+ 1.335 1 2 cbr 1000 ------- 3 1.0 3.0 67 67
- 1.335 1 2 cbr 1000 ------- 3 1.0 3.0 67 67
r 1.338 2 3 cbr 1000 ------- 3 1.0 3.0 56 56
r 1.339 1 2 cbr 1000 ------- 3 1.0 3.0 65 65
+ 1.339 2 3 cbr 1000 ------- 3 1.0 3.0 65 65
- 1.339333 2 3 cbr 1000 ------- 3 1.0 3.0 61 61
+ 1.34 1 2 cbr 1000 ------- 3 1.0 3.0 68 68
- 1.34 1 2 cbr 1000 ------- 3 1.0 3.0 68 68
r 1.343333 2 3 cbr 1000 ------- 3 1.0 3.0 57 57
r 1.344 1 2 cbr 1000 ------- 3 1.0 3.0 66 66
+ 1.344 2 3 cbr 1000 ------- 3 1.0 3.0 66 66
- 1.344667 2 3 cbr 1000 ------- 3 1.0 3.0 62 62
+ 1.345 1 2 cbr 1000 ------- 3 1.0 3.0 69 69
- 1.345 1 2 cbr 1000 ------- 3 1.0 3.0 69 69
r 1.348667 2 3 cbr 1000 ------- 3 1.0 3.0 58 58
r 1.349 1 2 cbr 1000 ------- 3 1.0 3.0 67 67
+ 1.349 2 3 cbr 1000 ------- 3 1.0 3.0 67 67
+ 1.35 1 2 cbr 1000 ------- 3 1.0 3.0 70 70
- 1.35 1 2 cbr 1000 ------- 3 1.0 3.0 70 70
- 1.35 2 3 cbr 1000 ------- 3 1.0 3.0 63 63
r 1.354 1 2 cbr 1000 ------- 3 1.0 3.0 68 68
+ 1.354 2 3 cbr 1000 ------- 3 1.0 3.0 68 68
r 1.354 2 3 cbr 1000 ------- 3 1.0 3.0 59 59
+ 1.355 1 2 cbr 1000 ------- 3 1.0 3.0 71 71
- 1.355 1 2 cbr 1000 ------- 3 1.0 3.0 71 71
- 1.355333 2 3 cbr 1000 ------- 3 1.0 3.0 64 64
r 1.359 1 2 cbr 1000 ------- 3 1.0 3.0 69 69
+ 1.359 2 3 cbr 1000 ------- 3 1.0 3.0 69 69
r 1.359333 2 3 cbr 1000 ------- 3 1.0 3.0 60 60
+ 1.36 1 2 cbr 1000 ------- 3 1.0 3.0 72 72
- 1.36 1 2 cbr 1000 ------- 3 1.0 3.0 72 72
- 1.360667 2 3 cbr 1000 ------- 3 1.0 3.0 65 65
r 1.364 1 2 cbr 1000 ------- 3 1.0 3.0 70 70
+ 1.364 2 3 cbr 1000 ------- 3 1.0 3.0 70 70
r 1.364667 2 3 cbr 1000 ------- 3 1.0 3.0 61 61
+ 1.365 1 2 cbr 1000 ------- 3 1.0 3.0 73 73
- 1.365 1 2 cbr 1000 ------- 3 1.0 3.0 73 73
- 1.366 2 3 cbr 1000 ------- 3 1.0 3.0 66 66
r 1.369 1 2 cbr 1000 ------- 3 1.0 3.0 71 71
+ 1.369 2 3 cbr 1000 ------- 3 1.0 3.0 71 71
+ 1.37 1 2 cbr 1000 ------- 3 1.0 3.0 74 74
- 1.37 1 2 cbr 1000 ------- 3 1.0 3.0 74 74
r 1.37 2 3 cbr 1000 ------- 3 1.0 3.0 62 62
- 1.371333 2 3 cbr 1000 ------- 3 1.0 3.0 67 67
r 1.374 1 2 cbr 1000 ------- 3 1.0 3.0 72 72
+ 1.374 2 3 cbr 1000 ------- 3 1.0 3.0 72 72
+ 1.375 1 2 cbr 1000 ------- 3 1.0 3.0 75 75
- 1.375 1 2 cbr 1000 ------- 3 1.0 3.0 75 75
r 1.375333 2 3 cbr 1000 ------- 3 1.0 3.0 63 63
- 1.376667 2 3 cbr 1000 ------- 3 1.0 3.0 68 68
r 1.379 1 2 cbr 1000 ------- 3 1.0 3.0 73 73
+ 1.379 2 3 cbr 1000 ------- 3 1.0 3.0 73 73
+ 1.38 1 2 cbr 1000 ------- 3 1.0 3.0 76 76
- 1.38 1 2 cbr 1000 ------- 3 1.0 3.0 76 76
r 1.380667 2 3 cbr 1000 ------- 3 1.0 3.0 64 64
- 1.382 2 3 cbr 1000 ------- 3 1.0 3.0 69 69
r 1.384 1 2 cbr 1000 ------- 3 1.0 3.0 74 74
+ 1.384 2 3 cbr 1000 ------- 3 1.0 3.0 74 74
+ 1.385 1 2 cbr 1000 ------- 3 1.0 3.0 77 77
- 1.385 1 2 cbr 1000 ------- 3 1.0 3.0 77 77
r 1.386 2 3 cbr 1000 ------- 3 1.0 3.0 65 65
- 1.387333 2 3 cbr 1000 ------- 3 1.0 3.0 70 70
r 1.389 1 2 cbr 1000 ------- 3 1.0 3.0 75 75
+ 1.389 2 3 cbr 1000 ------- 3 1.0 3.0 75 75
+ 1.39 1 2 cbr 1000 ------- 3 1.0 3.0 78 78
- 1.39 1 2 cbr 1000 ------- 3 1.0 3.0 78 78
r 1.391333 2 3 cbr 1000 ------- 3 1.0 3.0 66 66
- 1.392667 2 3 cbr 1000 ------- 3 1.0 3.0 71 71
r 1.394 1 2 cbr 1000 ------- 3 1.0 3.0 76 76
+ 1.394 2 3 cbr 1000 ------- 3 1.0 3.0 76 76
+ 1.395 1 2 cbr 1000 ------- 3 1.0 3.0 79 79
- 1.395 1 2 cbr 1000 ------- 3 1.0 3.0 79 79
r 1.396667 2 3 cbr 1000 ------- 3 1.0 3.0 67 67
- 1.398 2 3 cbr 1000 ------- 3 1.0 3.0 72 72
r 1.399 1 2 cbr 1000 ------- 3 1.0 3.0 77 77
+ 1.399 2 3 cbr 1000 ------- 3 1.0 3.0 77 77
+ 1.4 1 2 cbr 1000 ------- 3 1.0 3.0 80 80
- 1.4 1 2 cbr 1000 ------- 3 1.0 3.0 80 80
r 1.402 2 3 cbr 1000 ------- 3 1.0 3.0 68 68
- 1.403333 2 3 cbr 1000 ------- 3 1.0 3.0 73 73
r 1.404 1 2 cbr 1000 ------- 3 1.0 3.0 78 78
+ 1.404 2 3 cbr 1000 ------- 3 1.0 3.0 78 78
+ 1.405 1 2 cbr 1000 ------- 3 1.0 3.0 81 81
- 1.405 1 2 cbr 1000 ------- 3 1.0 3.0 81 81
r 1.407333 2 3 cbr 1000 ------- 3 1.0 3.0 69 69
- 1.408667 2 3 cbr 1000 ------- 3 1.0 3.0 74 74
r 1.409 1 2 cbr 1000 ------- 3 1.0 3.0 79 79
+ 1.409 2 3 cbr 1000 ------- 3 1.0 3.0 79 79
+ 1.41 1 2 cbr 1000 ------- 3 1.0 3.0 82 82
- 1.41 1 2 cbr 1000 ------- 3 1.0 3.0 82 82
r 1.412667 2 3 cbr 1000 ------- 3 1.0 3.0 70 70
r 1.414 1 2 cbr 1000 ------- 3 1.0 3.0 80 80
+ 1.414 2 3 cbr 1000 ------- 3 1.0 3.0 80 80
- 1.414 2 3 cbr 1000 ------- 3 1.0 3.0 75 75
+ 1.415 1 2 cbr 1000 ------- 3 1.0 3.0 83 83
- 1.415 1 2 cbr 1000 ------- 3 1.0 3.0 83 83
r 1.418 2 3 cbr 1000 ------- 3 1.0 3.0 71 71
r 1.419 1 2 cbr 1000 ------- 3 1.0 3.0 81 81
+ 1.419 2 3 cbr 1000 ------- 3 1.0 3.0 81 81
- 1.419333 2 3 cbr 1000 ------- 3 1.0 3.0 76 76
+ 1.42 1 2 cbr 1000 ------- 3 1.0 3.0 84 84
- 1.42 1 2 cbr 1000 ------- 3 1.0 3.0 84 84
r 1.423333 2 3 cbr 1000 ------- 3 1.0 3.0 72 72
r 1.424 1 2 cbr 1000 ------- 3 1.0 3.0 82 82
+ 1.424 2 3 cbr 1000 ------- 3 1.0 3.0 82 82
- 1.424667 2 3 cbr 1000 ------- 3 1.0 3.0 77 77
+ 1.425 1 2 cbr 1000 ------- 3 1.0 3.0 85 85
- 1.425 1 2 cbr 1000 ------- 3 1.0 3.0 85 85
r 1.428667 2 3 cbr 1000 ------- 3 1.0 3.0 73 73
r 1.429 1 2 cbr 1000 ------- 3 1.0 3.0 83 83
+ 1.429 2 3 cbr 1000 ------- 3 1.0 3.0 83 83
+ 1.43 1 2 cbr 1000 ------- 3 1.0 3.0 86 86
- 1.43 1 2 cbr 1000 ------- 3 1.0 3.0 86 86
- 1.43 2 3 cbr 1000 ------- 3 1.0 3.0 78 78
r 1.434 1 2 cbr 1000 ------- 3 1.0 3.0 84 84
+ 1.434 2 3 cbr 1000 ------- 3 1.0 3.0 84 84
r 1.434 2 3 cbr 1000 ------- 3 1.0 3.0 74 74
+ 1.435 1 2 cbr 1000 ------- 3 1.0 3.0 87 87
- 1.435 1 2 cbr 1000 ------- 3 1.0 3.0 87 87
- 1.435333 2 3 cbr 1000 ------- 3 1.0 3.0 79 79
r 1.439 1 2 cbr 1000 ------- 3 1.0 3.0 85 85
+ 1.439 2 3 cbr 1000 ------- 3 1.0 3.0 85 85
r 1.439333 2 3 cbr 1000 ------- 3 1.0 3.0 75 75
+ 1.44 1 2 cbr 1000 ------- 3 1.0 3.0 88 88
- 1.44 1 2 cbr 1000 ------- 3 1.0 3.0 88 88
- 1.440667 2 3 cbr 1000 ------- 3 1.0 3.0 80 80
r 1.444 1 2 cbr 1000 ------- 3 1.0 3.0 86 86
+ 1.444 2 3 cbr 1000 ------- 3 1.0 3.0 86 86
r 1.444667 2 3 cbr 1000 ------- 3 1.0 3.0 76 76
+ 1.445 1 2 cbr 1000 ------- 3 1.0 3.0 89 89
- 1.445 1 2 cbr 1000 ------- 3 1.0 3.0 89 89
- 1.446 2 3 cbr 1000 ------- 3 1.0 3.0 81 81
r 1.449 1 2 cbr 1000 ------- 3 1.0 3.0 87 87
+ 1.449 2 3 cbr 1000 ------- 3 1.0 3.0 87 87
+ 1.45 1 2 cbr 1000 ------- 3 1.0 3.0 90 90
- 1.45 1 2 cbr 1000 ------- 3 1.0 3.0 90 90
r 1.45 2 3 cbr 1000 ------- 3 1.0 3.0 77 77
- 1.451333 2 3 cbr 1000 ------- 3 1.0 3.0 82 82
r 1.454 1 2 cbr 1000 ------- 3 1.0 3.0 88 88
+ 1.454 2 3 cbr 1000 ------- 3 1.0 3.0 88 88
+ 1.455 1 2 cbr 1000 ------- 3 1.0 3.0 91 91
- 1.455 1 2 cbr 1000 ------- 3 1.0 3.0 91 91
r 1.455333 2 3 cbr 1000 ------- 3 1.0 3.0 78 78
- 1.456667 2 3 cbr 1000 ------- 3 1.0 3.0 83 83
r 1.459 1 2 cbr 1000 ------- 3 1.0 3.0 89 89
+ 1.459 2 3 cbr 1000 ------- 3 1.0 3.0 89 89
+ 1.46 1 2 cbr 1000 ------- 3 1.0 3.0 92 92
- 1.46 1 2 cbr 1000 ------- 3 1.0 3.0 92 92
r 1.460667 2 3 cbr 1000 ------- 3 1.0 3.0 79 79
- 1.462 2 3 cbr 1000 ------- 3 1.0 3.0 84 84
r 1.464 1 2 cbr 1000 ------- 3 1.0 3.0 90 90
+ 1.464 2 3 cbr 1000 ------- 3 1.0 3.0 90 90
+ 1.465 1 2 cbr 1000 ------- 3 1.0 3.0 93 93
- 1.465 1 2 cbr 1000 ------- 3 1.0 3.0 93 93
r 1.466 2 3 cbr 1000 ------- 3 1.0 3.0 80 80
- 1.467333 2 3 cbr 1000 ------- 3 1.0 3.0 85 85
r 1.469 1 2 cbr 1000 ------- 3 1.0 3.0 91 91
+ 1.469 2 3 cbr 1000 ------- 3 1.0 3.0 91 91
+ 1.47 1 2 cbr 1000 ------- 3 1.0 3.0 94 94
- 1.47 1 2 cbr 1000 ------- 3 1.0 3.0 94 94
r 1.471333 2 3 cbr 1000 ------- 3 1.0 3.0 81 81
- 1.472667 2 3 cbr 1000 ------- 3 1.0 3.0 86 86
r 1.474 1 2 cbr 1000 ------- 3 1.0 3.0 92 92
+ 1.474 2 3 cbr 1000 ------- 3 1.0 3.0 92 92
+ 1.475 1 2 cbr 1000 ------- 3 1.0 3.0 95 95
- 1.475 1 2 cbr 1000 ------- 3 1.0 3.0 95 95
r 1.476667 2 3 cbr 1000 ------- 3 1.0 3.0 82 82
- 1.478 2 3 cbr 1000 ------- 3 1.0 3.0 87 87
r 1.479 1 2 cbr 1000 ------- 3 1.0 3.0 93 93
+ 1.479 2 3 cbr 1000 ------- 3 1.0 3.0 93 93
+ 1.48 1 2 cbr 1000 ------- 3 1.0 3.0 96 96
- 1.48 1 2 cbr 1000 ------- 3 1.0 3.0 96 96
r 1.482 2 3 cbr 1000 ------- 3 1.0 3.0 83 83
- 1.483333 2 3 cbr 1000 ------- 3 1.0 3.0 88 88
r 1.484 1 2 cbr 1000 ------- 3 1.0 3.0 94 94
+ 1.484 2 3 cbr 1000 ------- 3 1.0 3.0 94 94
+ 1.485 1 2 cbr 1000 ------- 3 1.0 3.0 97 97
- 1.485 1 2 cbr 1000 ------- 3 1.0 3.0 97 97
r 1.487333 2 3 cbr 1000 ------- 3 1.0 3.0 84 84
- 1.488667 2 3 cbr 1000 ------- 3 1.0 3.0 89 89
r 1.489 1 2 cbr 1000 ------- 3 1.0 3.0 95 95
+ 1.489 2 3 cbr 1000 ------- 3 1.0 3.0 95 95
+ 1.49 1 2 cbr 1000 ------- 3 1.0 3.0 98 98
- 1.49 1 2 cbr 1000 ------- 3 1.0 3.0 98 98
r 1.492667 2 3 cbr 1000 ------- 3 1.0 3.0 85 85
r 1.494 1 2 cbr 1000 ------- 3 1.0 3.0 96 96
+ 1.494 2 3 cbr 1000 ------- 3 1.0 3.0 96 96
- 1.494 2 3 cbr 1000 ------- 3 1.0 3.0 90 90
+ 1.495 1 2 cbr 1000 ------- 3 1.0 3.0 99 99
- 1.495 1 2 cbr 1000 ------- 3 1.0 3.0 99 99
r 1.498 2 3 cbr 1000 ------- 3 1.0 3.0 86 86
r 1.499 1 2 cbr 1000 ------- 3 1.0 3.0 97 97
+ 1.499 2 3 cbr 1000 ------- 3 1.0 3.0 97 97
- 1.499333 2 3 cbr 1000 ------- 3 1.0 3.0 91 91
+ 1.5 1 2 cbr 1000 ------- 3 1.0 3.0 100 100
- 1.5 1 2 cbr 1000 ------- 3 1.0 3.0 100 100
r 1.503333 2 3 cbr 1000 ------- 3 1.0 3.0 87 87
r 1.504 1 2 cbr 1000 ------- 3 1.0 3.0 98 98
+ 1.504 2 3 cbr 1000 ------- 3 1.0 3.0 98 98
- 1.504667 2 3 cbr 1000 ------- 3 1.0 3.0 92 92
+ 1.505 1 2 cbr 1000 ------- 3 1.0 3.0 101 101
- 1.505 1 2 cbr 1000 ------- 3 1.0 3.0 101 101
r 1.508667 2 3 cbr 1000 ------- 3 1.0 3.0 88 88
r 1.509 1 2 cbr 1000 ------- 3 1.0 3.0 99 99
+ 1.509 2 3 cbr 1000 ------- 3 1.0 3.0 99 99
+ 1.51 1 2 cbr 1000 ------- 3 1.0 3.0 102 102
- 1.51 1 2 cbr 1000 ------- 3 1.0 3.0 102 102
- 1.51 2 3 cbr 1000 ------- 3 1.0 3.0 93 93
r 1.514 1 2 cbr 1000 ------- 3 1.0 3.0 100 100
+ 1.514 2 3 cbr 1000 ------- 3 1.0 3.0 100 100
r 1.514 2 3 cbr 1000 ------- 3 1.0 3.0 89 89
+ 1.515 1 2 cbr 1000 ------- 3 1.0 3.0 103 103
- 1.515 1 2 cbr 1000 ------- 3 1.0 3.0 103 103
- 1.515333 2 3 cbr 1000 ------- 3 1.0 3.0 94 94
r 1.519 1 2 cbr 1000 ------- 3 1.0 3.0 101 101
+ 1.519 2 3 cbr 1000 ------- 3 1.0 3.0 101 101
r 1.519333 2 3 cbr 1000 ------- 3 1.0 3.0 90 90
+ 1.52 1 2 cbr 1000 ------- 3 1.0 3.0 104 104
- 1.52 1 2 cbr 1000 ------- 3 1.0 3.0 104 104
- 1.520667 2 3 cbr 1000 ------- 3 1.0 3.0 95 95
r 1.524 1 2 cbr 1000 ------- 3 1.0 3.0 102 102
+ 1.524 2 3 cbr 1000 ------- 3 1.0 3.0 102 102
r 1.524667 2 3 cbr 1000 ------- 3 1.0 3.0 91 91
+ 1.525 1 2 cbr 1000 ------- 3 1.0 3.0 105 105
- 1.525 1 2 cbr 1000 ------- 3 1.0 3.0 105 105
- 1.526 2 3 cbr 1000 ------- 3 1.0 3.0 96 96
r 1.529 1 2 cbr 1000 ------- 3 1.0 3.0 103 103
+ 1.529 2 3 cbr 1000 ------- 3 1.0 3.0 103 103
+ 1.53 1 2 cbr 1000 ------- 3 1.0 3.0 106 106
- 1.53 1 2 cbr 1000 ------- 3 1.0 3.0 106 106
r 1.53 2 3 cbr 1000 ------- 3 1.0 3.0 92 92
- 1.531333 2 3 cbr 1000 ------- 3 1.0 3.0 97 97
r 1.534 1 2 cbr 1000 ------- 3 1.0 3.0 104 104
+ 1.534 2 3 cbr 1000 ------- 3 1.0 3.0 104 104
+ 1.535 1 2 cbr 1000 ------- 3 1.0 3.0 107 107
- 1.535 1 2 cbr 1000 ------- 3 1.0 3.0 107 107
r 1.535333 2 3 cbr 1000 ------- 3 1.0 3.0 93 93
- 1.536667 2 3 cbr 1000 ------- 3 1.0 3.0 98 98
r 1.539 1 2 cbr 1000 ------- 3 1.0 3.0 105 105
+ 1.539 2 3 cbr 1000 ------- 3 1.0 3.0 105 105
+ 1.54 1 2 cbr 1000 ------- 3 1.0 3.0 108 108
- 1.54 1 2 cbr 1000 ------- 3 1.0 3.0 108 108
r 1.540667 2 3 cbr 1000 ------- 3 1.0 3.0 94 94
- 1.542 2 3 cbr 1000 ------- 3 1.0 3.0 99 99
r 1.544 1 2 cbr 1000 ------- 3 1.0 3.0 106 106
+ 1.544 2 3 cbr 1000 ------- 3 1.0 3.0 106 106
+ 1.545 1 2 cbr 1000 ------- 3 1.0 3.0 109 109
- 1.545 1 2 cbr 1000 ------- 3 1.0 3.0 109 109
r 1.546 2 3 cbr 1000 ------- 3 1.0 3.0 95 95
- 1.547333 2 3 cbr 1000 ------- 3 1.0 3.0 100 100
r 1.549 1 2 cbr 1000 ------- 3 1.0 3.0 107 107
+ 1.549 2 3 cbr 1000 ------- 3 1.0 3.0 107 107
+ 1.55 1 2 cbr 1000 ------- 3 1.0 3.0 110 110
- 1.55 1 2 cbr 1000 ------- 3 1.0 3.0 110 110
r 1.551333 2 3 cbr 1000 ------- 3 1.0 3.0 96 96
- 1.552667 2 3 cbr 1000 ------- 3 1.0 3.0 101 101
r 1.554 1 2 cbr 1000 ------- 3 1.0 3.0 108 108
+ 1.554 2 3 cbr 1000 ------- 3 1.0 3.0 108 108
+ 1.555 1 2 cbr 1000 ------- 3 1.0 3.0 111 111
- 1.555 1 2 cbr 1000 ------- 3 1.0 3.0 111 111
r 1.556667 2 3 cbr 1000 ------- 3 1.0 3.0 97 97
- 1.558 2 3 cbr 1000 ------- 3 1.0 3.0 102 102
r 1.559 1 2 cbr 1000 ------- 3 1.0 3.0 109 109
+ 1.559 2 3 cbr 1000 ------- 3 1.0 3.0 109 109
+ 1.56 1 2 cbr 1000 ------- 3 1.0 3.0 112 112
- 1.56 1 2 cbr 1000 ------- 3 1.0 3.0 112 112
r 1.562 2 3 cbr 1000 ------- 3 1.0 3.0 98 98
- 1.563333 2 3 cbr 1000 ------- 3 1.0 3.0 103 103
r 1.564 1 2 cbr 1000 ------- 3 1.0 3.0 110 110
+ 1.564 2 3 cbr 1000 ------- 3 1.0 3.0 110 110
+ 1.565 1 2 cbr 1000 ------- 3 1.0 3.0 113 113
- 1.565 1 2 cbr 1000 ------- 3 1.0 3.0 113 113
r 1.567333 2 3 cbr 1000 ------- 3 1.0 3.0 99 99
- 1.568667 2 3 cbr 1000 ------- 3 1.0 3.0 104 104
r 1.569 1 2 cbr 1000 ------- 3 1.0 3.0 111 111
+ 1.569 2 3 cbr 1000 ------- 3 1.0 3.0 111 111
+ 1.57 1 2 cbr 1000 ------- 3 1.0 3.0 114 114
- 1.57 1 2 cbr 1000 ------- 3 1.0 3.0 114 114
r 1.572667 2 3 cbr 1000 ------- 3 1.0 3.0 100 100