s 0.000535000 _0_ MAC  --- 0 AODV 106 [0 ffffffff 0 800] ------- [0:255 -1:255 30 0] [0x2 1 1 [1 0] [0 4]] (REQUEST)
r 0.001383500 _1_ MAC  --- 0 AODV 48 [0 ffffffff 0 800] ------- [0:255 -1:255 30 0] [0x2 1 1 [1 0] [0 4]] (REQUEST)
s 0.002023500 _1_ MAC  --- 0 ARP 86 [0 ffffffff 1 806] ------- [REQUEST 1/1 0/0]
r 0.002712000 _0_ MAC  --- 0 ARP 28 [0 ffffffff 1 806] ------- [REQUEST 1/1 0/0]
s 0.003087000 _0_ MAC  --- 0 ARP 86 [13a 1 0 806] ------- [REPLY 0/0 1/1]
r 0.003324591 _1_ MAC  --- 0 ARP 28 [13a 1 0 806] ------- [REPLY 0/0 1/1]
s 0.003334591 _1_ MAC  --- 0 ACK 38 [0 0 0 0] 
r 0.003639091 _0_ MAC  --- 0 ACK 38 [0 0 0 0] 
s 0.003688591 _1_ MAC  --- 0 AODV 102 [13a 0 1 800] ------- [1:255 0:255 30 0] [0x4 1 [1 4] 10.000000] (REPLY)
r 0.003937818 _0_ MAC  --- 0 AODV 44 [13a 0 1 800] ------- [1:255 0:255 30 0] [0x4 1 [1 4] 10.000000] (REPLY)
s 0.003947818 _0_ MAC  --- 0 ACK 38 [0 1 0 0] 
r 0.004252318 _1_ MAC  --- 0 ACK 38 [0 1 0 0] 
s 0.004461818 _0_ MAC  --- 0 cbr 1578 [13a 1 0 800] ------- [0:0 1:0 30 1] [0] 0 0
r 0.005784500 _1_ MAC  --- 0 cbr 1520 [13a 1 0 800] ------- [0:0 1:0 30 1] [0] 1 0
s 0.005794500 _1_ MAC  --- 0 ACK 38 [0 0 0 0] 
r 0.006099000 _0_ MAC  --- 0 ACK 38 [0 0 0 0] 
s 0.006389000 _0_ MAC  --- 7 cbr 1578 [13a 1 0 800] ------- [0:0 1:0 30 1] [7] 0 0
r 0.007711682 _1_ MAC  --- 7 cbr 1520 [13a 1 0 800] ------- [0:0 1:0 30 1] [7] 1 0
s 0.007721682 _1_ MAC  --- 0 ACK 38 [0 0 0 0] 
r 0.008026182 _0_ MAC  --- 0 ACK 38 [0 0 0 0] 
s 0.008436182 _0_ MAC  --- 8 cbr 1578 [13a 1 0 800] ------- [0:0 1:0 30 1] [8] 0 0
r 0.009758864 _1_ MAC  --- 8 cbr 1520 [13a 1 0 800] ------- [0:0 1:0 30 1] [8] 1 0
s 0.009768864 _1_ MAC  --- 0 ACK 38 [0 0 0 0] 
r 0.010073364 _0_ MAC  --- 0 ACK 38 [0 0 0 0] 
s 0.010383364 _0_ MAC  --- 9 cbr 1578 [13a 1 0 800] ------- [0:0 1:0 30 1] [9] 0 0
r 0.011706045 _1_ MAC  --- 9 cbr 1520 [13a 1 0 800] ------- [0:0 1:0 30 1] [9] 1 0
s 0.011716045 _1_ MAC  --- 0 ACK 38 [0 0 0 0] 
r 0.012020545 _0_ MAC  --- 0 ACK 38 [0 0 0 0] 
s 0.012310545 _0_ MAC  --- 10 cbr 1578 [13a 1 0 800] ------- [0:0 1:0 30 1] [10] 0 0
r 0.013633227 _1_ MAC  --- 10 cbr 1520 [13a 1 0 800] ------- [0:0 1:0 30 1] [10] 1 0
s 0.013643227 _1_ MAC  --- 0 ACK 38 [0 0 0 0] 
r 0.013947727 _0_ MAC  --- 0 ACK 38 [0 0 0 0] 
s 0.014037727 _0_ MAC  --- 11 cbr 1578 [13a 1 0 800] ------- [0:0 1:0 30 1] [11] 0 0
r 0.015360409 _1_ MAC  --- 11 cbr 1520 [13a 1 0 800] ------- [0:0 1:0 30 1] [11] 1 0
s 0.015370409 _1_ MAC  --- 0 ACK 38 [0 0 0 0] 
r 0.015674909 _0_ MAC  --- 0 ACK 38 [0 0 0 0] 
s 0.016264909 _0_ MAC  --- 12 cbr 1578 [13a 1 0 800] ------- [0:0 1:0 30 1] [12] 0 0
r 0.017587591 _1_ MAC  --- 12 cbr 1520 [13a 1 0 800] ------- [0:0 1:0 30 1] [12] 1 0
s 0.017597591 _1_ MAC  --- 0 ACK 38 [0 0 0 0] 
r 0.017902091 _0_ MAC  --- 0 ACK 38 [0 0 0 0] 
s 0.018112091 _0_ MAC  --- 13 cbr 1578 [13a 1 0 800] ------- [0:0 1:0 30 1] [13] 0 0
D 0.019225000 _0_ IFQ  --- 32 cbr 1520 [0 1 0 800] ------- [0:0 1:0 30 1] [32] 0 0
r 0.019434773 _1_ MAC  --- 13 cbr 1520 [13a 1 0 800] ------- [0:0 1:0 30 1] [13] 1 0
s 0.019444773 _1_ MAC  --- 0 ACK 38 [0 0 0 0] 
r 0.019749273 _0_ MAC  --- 0 ACK 38 [0 0 0 0] 
s 0.020159273 _0_ MAC  --- 14 cbr 1578 [13a 1 0 800] ------- [0:0 1:0 30 1] [14] 0 0
D 0.020425000 _0_ IFQ  --- 34 cbr 1520 [0 1 0 800] ------- [0:0 1:0 30 1] [34] 0 0
D 0.021025000 _0_ IFQ  --- 35 cbr 1520 [0 1 0 800] ------- [0:0 1:0 30 1] [35] 0 0
r 0.021481955 _1_ MAC  --- 14 cbr 1520 [13a 1 0 800] ------- [0:0 1:0 30 1] [14] 1 0
s 0.021491955 _1_ MAC  --- 0 ACK 38 [0 0 0 0] 
D 0.021625000 _0_ IFQ  --- 36 cbr 1520 [0 1 0 800] ------- [0:0 1:0 30 1] [36] 0 0
r 0.021796455 _0_ MAC  --- 0 ACK 38 [0 0 0 0] 
s 0.022086455 _0_ MAC  --- 15 cbr 1578 [13a 1 0 800] ------- [0:0 1:0 30 1] [15] 0 0
D 0.022825000 _0_ IFQ  --- 38 cbr 1520 [0 1 0 800] ------- [0:0 1:0 30 1] [38] 0 0
r 0.023409136 _1_ MAC  --- 15 cbr 1520 [13a 1 0 800] ------- [0:0 1:0 30 1] [15] 1 0
s 0.023419136 _1_ MAC  --- 0 ACK 38 [0 0 0 0] 
D 0.023425000 _0_ IFQ  --- 39 cbr 1520 [0 1 0 800] ------- [0:0 1:0 30 1] [39] 0 0
r 0.023723636 _0_ MAC  --- 0 ACK 38 [0 0 0 0] 
s 0.023933636 _0_ MAC  --- 16 cbr 1578 [13a 1 0 800] ------- [0:0 1:0 30 1] [16] 0 0
D 0.024025000 _0_ IFQ  --- 40 cbr 1520 [0 1 0 800] ------- [0:0 1:0 30 1] [40] 0 0
D 0.024625000 _0_ IFQ  --- 41 cbr 1520 [0 1 0 800] ------- [0:0 1:0 30 1] [41] 0 0
D 0.025225000 _0_ IFQ  --- 42 cbr 1520 [0 1 0 800] ------- [0:0 1:0 30 1] [42] 0 0
r 0.025256318 _1_ MAC  --- 16 cbr 1520 [13a 1 0 800] ------- [0:0 1:0 30 1] [16] 1 0
s 0.025266318 _1_ MAC  --- 0 ACK 38 [0 0 0 0] 
r 0.025570818 _0_ MAC  --- 0 ACK 38 [0 0 0 0] 
s 0.026100818 _0_ MAC  --- 17 cbr 1578 [13a 1 0 800] ------- [0:0 1:0 30 1] [17] 0 0
D 0.026425000 _0_ IFQ  --- 44 cbr 1520 [0 1 0 800] ------- [0:0 1:0 30 1] [44] 0 0
D 0.027025000 _0_ IFQ  --- 45 cbr 1520 [0 1 0 800] ------- [0:0 1:0 30 1] [45] 0 0
r 0.027423500 _1_ MAC  --- 17 cbr 1520 [13a 1 0 800] ------- [0:0 1:0 30 1] [17] 1 0
s 0.027433500 _1_ MAC  --- 0 ACK 38 [0 0 0 0] 
D 0.027625000 _0_ IFQ  --- 46 cbr 1520 [0 1 0 800] ------- [0:0 1:0 30 1] [46] 0 0
r 0.027738000 _0_ MAC  --- 0 ACK 38 [0 0 0 0] 
s 0.028128000 _0_ MAC  --- 18 cbr 1578 [13a 1 0 800] ------- [0:0 1:0 30 1] [18] 0 0
D 0.028825000 _0_ IFQ  --- 48 cbr 1520 [0 1 0 800] ------- [0:0 1:0 30 1] [48] 0 0
D 0.029425000 _0_ IFQ  --- 49 cbr 1520 [0 1 0 800] ------- [0:0 1:0 30 1] [49] 0 0
r 0.029450682 _1_ MAC  --- 18 cbr 1520 [13a 1 0 800] ------- [0:0 1:0 30 1] [18] 1 0
s 0.029460682 _1_ MAC  --- 0 ACK 38 [0 0 0 0] 
r 0.029765182 _0_ MAC  --- 0 ACK 38 [0 0 0 0] 
s 0.030135182 _0_ MAC  --- 19 cbr 1578 [13a 1 0 800] ------- [0:0 1:0 30 1] [19] 0 0
D 0.030625000 _0_ IFQ  --- 51 cbr 1520 [0 1 0 800] ------- [0:0 1:0 30 1] [51] 0 0
D 0.031225000 _0_ IFQ  --- 52 cbr 1520 [0 1 0 800] ------- [0:0 1:0 30 1] [52] 0 0
r 0.031457864 _1_ MAC  --- 19 cbr 1520 [13a 1 0 800] ------- [0:0 1:0 30 1] [19] 1 0
s 0.031467864 _1_ MAC  --- 0 ACK 38 [0 0 0 0] 
r 0.031772364 _0_ MAC  --- 0 ACK 38 [0 0 0 0] 
s 0.032022364 _0_ MAC  --- 20 cbr 1578 [13a 1 0 800] ------- [0:0 1:0 30 1] [20] 0 0
D 0.032425000 _0_ IFQ  --- 54 cbr 1520 [0 1 0 800] ------- [0:0 1:0 30 1] [54] 0 0
D 0.033025000 _0_ IFQ  --- 55 cbr 1520 [0 1 0 800] ------- [0:0 1:0 30 1] [55] 0 0
r 0.033345045 _1_ MAC  --- 20 cbr 1520 [13a 1 0 800] ------- [0:0 1:0 30 1] [20] 1 0
s 0.033355045 _1_ MAC  --- 0 ACK 38 [0 0 0 0] 
D 0.033625000 _0_ IFQ  --- 56 cbr 1520 [0 1 0 800] ------- [0:0 1:0 30 1] [56] 0 0
r 0.033659545 _0_ MAC  --- 0 ACK 38 [0 0 0 0] 
s 0.033929545 _0_ MAC  --- 21 cbr 1578 [13a 1 0 800] ------- [0:0 1:0 30 1] [21] 0 0
D 0.034225000 _0_ IFQ  --- 57 cbr 1520 [0 1 0 800] ------- [0:0 1:0 30 1] [57] 0 0
D 0.034825000 _0_ IFQ  --- 58 cbr 1520 [0 1 0 800] ------- [0:0 1:0 30 1] [58] 0 0
r 0.035252227 _1_ MAC  --- 21 cbr 1520 [13a 1 0 800] ------- [0:0 1:0 30 1] [21] 1 0
s 0.035262227 _1_ MAC  --- 0 ACK 38 [0 0 0 0] 
D 0.035425000 _0_ IFQ  --- 59 cbr 1520 [0 1 0 800] ------- [0:0 1:0 30 1] [59] 0 0
r 0.035566727 _0_ MAC  --- 0 ACK 38 [0 0 0 0] 
s 0.035636727 _0_ MAC  --- 22 cbr 1578 [13a 1 0 800] ------- [0:0 1:0 30 1] [22] 0 0
D 0.036625000 _0_ IFQ  --- 61 cbr 1520 [0 1 0 800] ------- [0:0 1:0 30 1] [61] 0 0
r 0.036959409 _1_ MAC  --- 22 cbr 1520 [13a 1 0 800] ------- [0:0 1:0 30 1] [22] 1 0
s 0.036969409 _1_ MAC  --- 0 ACK 38 [0 0 0 0] 
D 0.037225000 _0_ IFQ  --- 62 cbr 1520 [0 1 0 800] ------- [0:0 1:0 30 1] [62] 0 0
r 0.037273909 _0_ MAC  --- 0 ACK 38 [0 0 0 0] 
s 0.037563909 _0_ MAC  --- 23 cbr 1578 [13a 1 0 800] ------- [0:0 1:0 30 1] [23] 0 0
D 0.038425000 _0_ IFQ  --- 64 cbr 1520 [0 1 0 800] ------- [0:0 1:0 30 1] [64] 0 0
r 0.038886591 _1_ MAC  --- 23 cbr 1520 [13a 1 0 800] ------- [0:0 1:0 30 1] [23] 1 0
s 0.038896591 _1_ MAC  --- 0 ACK 38 [0 0 0 0] 
D 0.039025000 _0_ IFQ  --- 65 cbr 1520 [0 1 0 800] ------- [0:0 1:0 30 1] [65] 0 0
r 0.039201091 _0_ MAC  --- 0 ACK 38 [0 0 0 0] 
s 0.039691091 _0_ MAC  --- 1 cbr 1578 [13a 1 0 800] ------- [0:0 1:0 30 1] [1] 0 0
D 0.040225000 _0_ IFQ  --- 67 cbr 1520 [0 1 0 800] ------- [0:0 1:0 30 1] [67] 0 0
D 0.040825000 _0_ IFQ  --- 68 cbr 1520 [0 1 0 800] ------- [0:0 1:0 30 1] [68] 0 0
r 0.041013773 _1_ MAC  --- 1 cbr 1520 [13a 1 0 800] ------- [0:0 1:0 30 1] [1] 1 0
s 0.041023773 _1_ MAC  --- 0 ACK 38 [0 0 0 0] 
r 0.041328273 _0_ MAC  --- 0 ACK 38 [0 0 0 0] 
s 0.041558273 _0_ MAC  --- 24 cbr 1578 [13a 1 0 800] ------- [0:0 1:0 30 1] [24] 0 0
D 0.042025000 _0_ IFQ  --- 70 cbr 1520 [0 1 0 800] ------- [0:0 1:0 30 1] [70] 0 0
D 0.042625000 _0_ IFQ  --- 71 cbr 1520 [0 1 0 800] ------- [0:0 1:0 30 1] [71] 0 0
r 0.042880955 _1_ MAC  --- 24 cbr 1520 [13a 1 0 800] ------- [0:0 1:0 30 1] [24] 1 0
s 0.042890955 _1_ MAC  --- 0 ACK 38 [0 0 0 0] 
r 0.043195455 _0_ MAC  --- 0 ACK 38 [0 0 0 0] 
D 0.043825000 _0_ IFQ  --- 73 cbr 1520 [0 1 0 800] ------- [0:0 1:0 30 1] [73] 0 0
s 0.043825455 _0_ MAC  --- 25 cbr 1578 [13a 1 0 800] ------- [0:0 1:0 30 1] [25] 0 0
D 0.043987818 _0_ IFQ  --- 4 cbr 1520 [0 1 0 800] ------- [0:0 1:0 30 1] [4] 0 0
D 0.044425000 _0_ IFQ  --- 74 cbr 1520 [0 1 0 800] ------- [0:0 1:0 30 1] [74] 0 0
D 0.045025000 _0_ IFQ  --- 75 cbr 1520 [0 1 0 800] ------- [0:0 1:0 30 1] [75] 0 0
r 0.045148136 _1_ MAC  --- 25 cbr 1520 [13a 1 0 800] ------- [0:0 1:0 30 1] [25] 1 0
s 0.045158136 _1_ MAC  --- 0 ACK 38 [0 0 0 0] 
r 0.045462636 _0_ MAC  --- 0 ACK 38 [0 0 0 0] 
s 0.045912636 _0_ MAC  --- 26 cbr 1578 [13a 1 0 800] ------- [0:0 1:0 30 1] [26] 0 0
D 0.046225000 _0_ IFQ  --- 77 cbr 1520 [0 1 0 800] ------- [0:0 1:0 30 1] [77] 0 0
D 0.046825000 _0_ IFQ  --- 78 cbr 1520 [0 1 0 800] ------- [0:0 1:0 30 1] [78] 0 0
r 0.047235318 _1_ MAC  --- 26 cbr 1520 [13a 1 0 800] ------- [0:0 1:0 30 1] [26] 1 0
s 0.047245318 _1_ MAC  --- 0 ACK 38 [0 0 0 0] 
D 0.047425000 _0_ IFQ  --- 79 cbr 1520 [0 1 0 800] ------- [0:0 1:0 30 1] [79] 0 0
r 0.047549818 _0_ MAC  --- 0 ACK 38 [0 0 0 0] 
s 0.048139818 _0_ MAC  --- 27 cbr 1578 [13a 1 0 800] ------- [0:0 1:0 30 1] [27] 0 0
D 0.048625000 _0_ IFQ  --- 81 cbr 1520 [0 1 0 800] ------- [0:0 1:0 30 1] [81] 0 0
D 0.049225000 _0_ IFQ  --- 82 cbr 1520 [0 1 0 800] ------- [0:0 1:0 30 1] [82] 0 0
r 0.049462500 _1_ MAC  --- 27 cbr 1520 [13a 1 0 800] ------- [0:0 1:0 30 1] [27] 1 0
s 0.049472500 _1_ MAC  --- 0 ACK 38 [0 0 0 0] 
r 0.049777000 _0_ MAC  --- 0 ACK 38 [0 0 0 0] 
s 0.050187000 _0_ MAC  --- 28 cbr 1578 [13a 1 0 800] ------- [0:0 1:0 30 1] [28] 0 0
D 0.050425000 _0_ IFQ  --- 84 cbr 1520 [0 1 0 800] ------- [0:0 1:0 30 1] [84] 0 0
D 0.051025000 _0_ IFQ  --- 85 cbr 1520 [0 1 0 800] ------- [0:0 1:0 30 1] [85] 0 0
r 0.051509682 _1_ MAC  --- 28 cbr 1520 [13a 1 0 800] ------- [0:0 1:0 30 1] [28] 1 0
s 0.051519682 _1_ MAC  --- 0 ACK 38 [0 0 0 0] 
D 0.051625000 _0_ IFQ  --- 86 cbr 1520 [0 1 0 800] ------- [0:0 1:0 30 1] [86] 0 0
r 0.051824182 _0_ MAC  --- 0 ACK 38 [0 0 0 0] 
s 0.051914182 _0_ MAC  --- 29 cbr 1578 [13a 1 0 800] ------- [0:0 1:0 30 1] [29] 0 0
D 0.052825000 _0_ IFQ  --- 88 cbr 1520 [0 1 0 800] ------- [0:0 1:0 30 1] [88] 0 0
r 0.053236864 _1_ MAC  --- 29 cbr 1520 [13a 1 0 800] ------- [0:0 1:0 30 1] [29] 1 0
s 0.053246864 _1_ MAC  --- 0 ACK 38 [0 0 0 0] 
D 0.053425000 _0_ IFQ  --- 89 cbr 1520 [0 1 0 800] ------- [0:0 1:0 30 1] [89] 0 0
r 0.053551364 _0_ MAC  --- 0 ACK 38 [0 0 0 0] 
s 0.053901364 _0_ MAC  --- 30 cbr 1578 [13a 1 0 800] ------- [0:0 1:0 30 1] [30] 0 0
D 0.054025000 _0_ IFQ  --- 90 cbr 1520 [0 1 0 800] ------- [0:0 1:0 30 1] [90] 0 0
D 0.054625000 _0_ IFQ  --- 91 cbr 1520 [0 1 0 800] ------- [0:0 1:0 30 1] [91] 0 0
r 0.055224045 _1_ MAC  --- 30 cbr 1520 [13a 1 0 800] ------- [0:0 1:0 30 1] [30] 1 0
D 0.055225000 _0_ IFQ  --- 92 cbr 1520 [0 1 0 800] ------- [0:0 1:0 30 1] [92] 0 0
s 0.055234045 _1_ MAC  --- 0 ACK 38 [0 0 0 0] 
r 0.055538545 _0_ MAC  --- 0 ACK 38 [0 0 0 0] 
s 0.055948545 _0_ MAC  --- 31 cbr 1578 [13a 1 0 800] ------- [0:0 1:0 30 1] [31] 0 0
D 0.056425000 _0_ IFQ  --- 94 cbr 1520 [0 1 0 800] ------- [0:0 1:0 30 1] [94] 0 0
D 0.057025000 _0_ IFQ  --- 95 cbr 1520 [0 1 0 800] ------- [0:0 1:0 30 1] [95] 0 0
r 0.057271227 _1_ MAC  --- 31 cbr 1520 [13a 1 0 800] ------- [0:0 1:0 30 1] [31] 1 0
s 0.057281227 _1_ MAC  --- 0 ACK 38 [0 0 0 0] 
r 0.057585727 _0_ MAC  --- 0 ACK 38 [0 0 0 0] 
s 0.057775727 _0_ MAC  --- 33 cbr 1578 [13a 1 0 800] ------- [0:0 1:0 30 1] [33] 0 0
D 0.058225000 _0_ IFQ  --- 97 cbr 1520 [0 1 0 800] ------- [0:0 1:0 30 1] [97] 0 0
D 0.058825000 _0_ IFQ  --- 98 cbr 1520 [0 1 0 800] ------- [0:0 1:0 30 1] [98] 0 0
r 0.059098409 _1_ MAC  --- 33 cbr 1520 [13a 1 0 800] ------- [0:0 1:0 30 1] [33] 1 0
s 0.059108409 _1_ MAC  --- 0 ACK 38 [0 0 0 0] 
r 0.059412909 _0_ MAC  --- 0 ACK 38 [0 0 0 0] 
s 0.059542909 _0_ MAC  --- 37 cbr 1578 [13a 1 0 800] ------- [0:0 1:0 30 1] [37] 0 0
D 0.060025000 _0_ IFQ  --- 100 cbr 1520 [0 1 0 800] ------- [0:0 1:0 30 1] [100] 0 0
D 0.060625000 _0_ IFQ  --- 101 cbr 1520 [0 1 0 800] ------- [0:0 1:0 30 1] [101] 0 0
r 0.060865591 _1_ MAC  --- 37 cbr 1520 [13a 1 0 800] ------- [0:0 1:0 30 1] [37] 1 0
s 0.060875591 _1_ MAC  --- 0 ACK 38 [0 0 0 0] 
r 0.061180091 _0_ MAC  --- 0 ACK 38 [0 0 0 0] 
s 0.061510091 _0_ MAC  --- 2 cbr 1578 [13a 1 0 800] ------- [0:0 1:0 30 1] [2] 0 0
D 0.061825000 _0_ IFQ  --- 103 cbr 1520 [0 1 0 800] ------- [0:0 1:0 30 1] [103] 0 0
D 0.062425000 _0_ IFQ  --- 104 cbr 1520 [0 1 0 800] ------- [0:0 1:0 30 1] [104] 0 0
r 0.062832773 _1_ MAC  --- 2 cbr 1520 [13a 1 0 800] ------- [0:0 1:0 30 1] [2] 1 0
s 0.062842773 _1_ MAC  --- 0 ACK 38 [0 0 0 0] 
D 0.063025000 _0_ IFQ  --- 105 cbr 1520 [0 1 0 800] ------- [0:0 1:0 30 1] [105] 0 0
r 0.063147273 _0_ MAC  --- 0 ACK 38 [0 0 0 0] 
s 0.063397273 _0_ MAC  --- 43 cbr 1578 [13a 1 0 800] ------- [0:0 1:0 30 1] [43] 0 0
D 0.063987818 _0_ IFQ  --- 6 cbr 1520 [0 1 0 800] ------- [0:0 1:0 30 1] [6] 0 0
D 0.064225000 _0_ IFQ  --- 107 cbr 1520 [0 1 0 800] ------- [0:0 1:0 30 1] [107] 0 0
r 0.064719955 _1_ MAC  --- 43 cbr 1520 [13a 1 0 800] ------- [0:0 1:0 30 1] [43] 1 0
s 0.064729955 _1_ MAC  --- 0 ACK 38 [0 0 0 0] 
D 0.064825000 _0_ IFQ  --- 108 cbr 1520 [0 1 0 800] ------- [0:0 1:0 30 1] [108] 0 0
r 0.065034455 _0_ MAC  --- 0 ACK 38 [0 0 0 0] 
s 0.065184455 _0_ MAC  --- 47 cbr 1578 [13a 1 0 800] ------- [0:0 1:0 30 1] [47] 0 0
D 0.066025000 _0_ IFQ  --- 110 cbr 1520 [0 1 0 800] ------- [0:0 1:0 30 1] [110] 0 0
r 0.066507136 _1_ MAC  --- 47 cbr 1520 [13a 1 0 800] ------- [0:0 1:0 30 1] [47] 1 0
s 0.066517136 _1_ MAC  --- 0 ACK 38 [0 0 0 0] 
D 0.066625000 _0_ IFQ  --- 111 cbr 1520 [0 1 0 800] ------- [0:0 1:0 30 1] [111] 0 0
r 0.066821636 _0_ MAC  --- 0 ACK 38 [0 0 0 0] 
s 0.067391636 _0_ MAC  --- 50 cbr 1578 [13a 1 0 800] ------- [0:0 1:0 30 1] [50] 0 0
D 0.067825000 _0_ IFQ  --- 113 cbr 1520 [0 1 0 800] ------- [0:0 1:0 30 1] [113] 0 0
D 0.068425000 _0_ IFQ  --- 114 cbr 1520 [0 1 0 800] ------- [0:0 1:0 30 1] [114] 0 0
r 0.068714318 _1_ MAC  --- 50 cbr 1520 [13a 1 0 800] ------- [0:0 1:0 30 1] [50] 1 0
s 0.068724318 _1_ MAC  --- 0 ACK 38 [0 0 0 0] 
D 0.069025000 _0_ IFQ  --- 115 cbr 1520 [0 1 0 800] ------- [0:0 1:0 30 1] [115] 0 0
r 0.069028818 _0_ MAC  --- 0 ACK 38 [0 0 0 0] 
s 0.069298818 _0_ MAC  --- 53 cbr 1578 [13a 1 0 800] ------- [0:0 1:0 30 1] [53] 0 0
D 0.070225000 _0_ IFQ  --- 117 cbr 1520 [0 1 0 800] ------- [0:0 1:0 30 1] [117] 0 0
r 0.070621500 _1_ MAC  --- 53 cbr 1520 [13a 1 0 800] ------- [0:0 1:0 30 1] [53] 1 0
s 0.070631500 _1_ MAC  --- 0 ACK 38 [0 0 0 0] 
D 0.070825000 _0_ IFQ  --- 118 cbr 1520 [0 1 0 800] ------- [0:0 1:0 30 1] [118] 0 0
r 0.070936000 _0_ MAC  --- 0 ACK 38 [0 0 0 0] 
s 0.071186000 _0_ MAC  --- 3 cbr 1578 [13a 1 0 800] ------- [0:0 1:0 30 1] [3] 0 0
D 0.072025000 _0_ IFQ  --- 120 cbr 1520 [0 1 0 800] ------- [0:0 1:0 30 1] [120] 0 0
r 0.072508682 _1_ MAC  --- 3 cbr 1520 [13a 1 0 800] ------- [0:0 1:0 30 1] [3] 1 0
s 0.072518682 _1_ MAC  --- 0 ACK 38 [0 0 0 0] 
D 0.072625000 _0_ IFQ  --- 121 cbr 1520 [0 1 0 800] ------- [0:0 1:0 30 1] [121] 0 0
r 0.072823182 _0_ MAC  --- 0 ACK 38 [0 0 0 0] 
s 0.073453182 _0_ MAC  --- 60 cbr 1578 [13a 1 0 800] ------- [0:0 1:0 30 1] [60] 0 0
D 0.073825000 _0_ IFQ  --- 123 cbr 1520 [0 1 0 800] ------- [0:0 1:0 30 1] [123] 0 0
D 0.074425000 _0_ IFQ  --- 124 cbr 1520 [0 1 0 800] ------- [0:0 1:0 30 1] [124] 0 0
r 0.074775864 _1_ MAC  --- 60 cbr 1520 [13a 1 0 800] ------- [0:0 1:0 30 1] [60] 1 0
s 0.074785864 _1_ MAC  --- 0 ACK 38 [0 0 0 0] 
D 0.075025000 _0_ IFQ  --- 125 cbr 1520 [0 1 0 800] ------- [0:0 1:0 30 1] [125] 0 0
r 0.075090364 _0_ MAC  --- 0 ACK 38 [0 0 0 0] 
s 0.075200364 _0_ MAC  --- 63 cbr 1578 [13a 1 0 800] ------- [0:0 1:0 30 1] [63] 0 0
D 0.076225000 _0_ IFQ  --- 127 cbr 1520 [0 1 0 800] ------- [0:0 1:0 30 1] [127] 0 0
r 0.076523045 _1_ MAC  --- 63 cbr 1520 [13a 1 0 800] ------- [0:0 1:0 30 1] [63] 1 0
s 0.076533045 _1_ MAC  --- 0 ACK 38 [0 0 0 0] 
D 0.076825000 _0_ IFQ  --- 128 cbr 1520 [0 1 0 800] ------- [0:0 1:0 30 1] [128] 0 0
r 0.076837545 _0_ MAC  --- 0 ACK 38 [0 0 0 0] 
s 0.077007545 _0_ MAC  --- 66 cbr 1578 [13a 1 0 800] ------- [0:0 1:0 30 1] [66] 0 0
D 0.078025000 _0_ IFQ  --- 130 cbr 1520 [0 1 0 800] ------- [0:0 1:0 30 1] [130] 0 0
r 0.078330227 _1_ MAC  --- 66 cbr 1520 [13a 1 0 800] ------- [0:0 1:0 30 1] [66] 1 0
s 0.078340227 _1_ MAC  --- 0 ACK 38 [0 0 0 0] 
D 0.078625000 _0_ IFQ  --- 131 cbr 1520 [0 1 0 800] ------- [0:0 1:0 30 1] [131] 0 0
r 0.078644727 _0_ MAC  --- 0 ACK 38 [0 0 0 0] 
s 0.079034727 _0_ MAC  --- 69 cbr 1578 [13a 1 0 800] ------- [0:0 1:0 30 1] [69] 0 0
D 0.079825000 _0_ IFQ  --- 133 cbr 1520 [0 1 0 800] ------- [0:0 1:0 30 1] [133] 0 0
r 0.080357409 _1_ MAC  --- 69 cbr 1520 [13a 1 0 800] ------- [0:0 1:0 30 1] [69] 1 0
s 0.080367409 _1_ MAC  --- 0 ACK 38 [0 0 0 0] 
D 0.080425000 _0_ IFQ  --- 134 cbr 1520 [0 1 0 800] ------- [0:0 1:0 30 1] [134] 0 0
r 0.080671909 _0_ MAC  --- 0 ACK 38 [0 0 0 0] 
s 0.081221909 _0_ MAC  --- 72 cbr 1578 [13a 1 0 800] ------- [0:0 1:0 30 1] [72] 0 0
D 0.081625000 _0_ IFQ  --- 136 cbr 1520 [0 1 0 800] ------- [0:0 1:0 30 1] [136] 0 0
D 0.082225000 _0_ IFQ  --- 137 cbr 1520 [0 1 0 800] ------- [0:0 1:0 30 1] [137] 0 0
r 0.082544591 _1_ MAC  --- 72 cbr 1520 [13a 1 0 800] ------- [0:0 1:0 30 1] [72] 1 0
s 0.082554591 _1_ MAC  --- 0 ACK 38 [0 0 0 0] 
D 0.082825000 _0_ IFQ  --- 138 cbr 1520 [0 1 0 800] ------- [0:0 1:0 30 1] [138] 0 0
r 0.082859091 _0_ MAC  --- 0 ACK 38 [0 0 0 0] 
s 0.083189091 _0_ MAC  --- 76 cbr 1578 [13a 1 0 800] ------- [0:0 1:0 30 1] [76] 0 0
D 0.084025000 _0_ IFQ  --- 140 cbr 1520 [0 1 0 800] ------- [0:0 1:0 30 1] [140] 0 0
r 0.084511773 _1_ MAC  --- 76 cbr 1520 [13a 1 0 800] ------- [0:0 1:0 30 1] [76] 1 0
s 0.084521773 _1_ MAC  --- 0 ACK 38 [0 0 0 0] 
D 0.084625000 _0_ IFQ  --- 141 cbr 1520 [0 1 0 800] ------- [0:0 1:0 30 1] [141] 0 0
r 0.084826273 _0_ MAC  --- 0 ACK 38 [0 0 0 0] 
s 0.085056273 _0_ MAC  --- 80 cbr 1578 [13a 1 0 800] ------- [0:0 1:0 30 1] [80] 0 0
D 0.085825000 _0_ IFQ  --- 143 cbr 1520 [0 1 0 800] ------- [0:0 1:0 30 1] [143] 0 0
r 0.086378955 _1_ MAC  --- 80 cbr 1520 [13a 1 0 800] ------- [0:0 1:0 30 1] [80] 1 0
s 0.086388955 _1_ MAC  --- 0 ACK 38 [0 0 0 0] 
D 0.086425000 _0_ IFQ  --- 144 cbr 1520 [0 1 0 800] ------- [0:0 1:0 30 1] [144] 0 0
r 0.086693455 _0_ MAC  --- 0 ACK 38 [0 0 0 0] 
s 0.087023455 _0_ MAC  --- 83 cbr 1578 [13a 1 0 800] ------- [0:0 1:0 30 1] [83] 0 0
D 0.087625000 _0_ IFQ  --- 146 cbr 1520 [0 1 0 800] ------- [0:0 1:0 30 1] [146] 0 0
D 0.088225000 _0_ IFQ  --- 147 cbr 1520 [0 1 0 800] ------- [0:0 1:0 30 1] [147] 0 0
r 0.088346136 _1_ MAC  --- 83 cbr 1520 [13a 1 0 800] ------- [0:0 1:0 30 1] [83] 1 0
s 0.088356136 _1_ MAC  --- 0 ACK 38 [0 0 0 0] 
r 0.088660636 _0_ MAC  --- 0 ACK 38 [0 0 0 0] 
s 0.089190636 _0_ MAC  --- 87 cbr 1578 [13a 1 0 800] ------- [0:0 1:0 30 1] [87] 0 0
D 0.089425000 _0_ IFQ  --- 149 cbr 1520 [0 1 0 800] ------- [0:0 1:0 30 1] [149] 0 0
D 0.090025000 _0_ IFQ  --- 150 cbr 1520 [0 1 0 800] ------- [0:0 1:0 30 1] [150] 0 0
r 0.090513318 _1_ MAC  --- 87 cbr 1520 [13a 1 0 800] ------- [0:0 1:0 30 1] [87] 1 0
s 0.090523318 _1_ MAC  --- 0 ACK 38 [0 0 0 0] 
D 0.090625000 _0_ IFQ  --- 151 cbr 1520 [0 1 0 800] ------- [0:0 1:0 30 1] [151] 0 0
r 0.090827818 _0_ MAC  --- 0 ACK 38 [0 0 0 0] 
s 0.090877818 _0_ MAC  --- 5 cbr 1578 [13a 1 0 800] ------- [0:0 1:0 30 1] [5] 0 0
D 0.091825000 _0_ IFQ  --- 153 cbr 1520 [0 1 0 800] ------- [0:0 1:0 30 1] [153] 0 0
r 0.092200500 _1_ MAC  --- 5 cbr 1520 [13a 1 0 800] ------- [0:0 1:0 30 1] [5] 1 0
s 0.092210500 _1_ MAC  --- 0 ACK 38 [0 0 0 0] 
D 0.092425000 _0_ IFQ  --- 154 cbr 1520 [0 1 0 800] ------- [0:0 1:0 30 1] [154] 0 0
r 0.092515000 _0_ MAC  --- 0 ACK 38 [0 0 0 0] 
s 0.092785000 _0_ MAC  --- 93 cbr 1578 [13a 1 0 800] ------- [0:0 1:0 30 1] [93] 0 0
D 0.093625000 _0_ IFQ  --- 156 cbr 1520 [0 1 0 800] ------- [0:0 1:0 30 1] [156] 0 0
r 0.094107682 _1_ MAC  --- 93 cbr 1520 [13a 1 0 800] ------- [0:0 1:0 30 1] [93] 1 0
s 0.094117682 _1_ MAC  --- 0 ACK 38 [0 0 0 0] 
D 0.094225000 _0_ IFQ  --- 157 cbr 1520 [0 1 0 800] ------- [0:0 1:0 30 1] [157] 0 0
r 0.094422182 _0_ MAC  --- 0 ACK 38 [0 0 0 0] 
s 0.094792182 _0_ MAC  --- 96 cbr 1578 [13a 1 0 800] ------- [0:0 1:0 30 1] [96] 0 0
D 0.095425000 _0_ IFQ  --- 159 cbr 1520 [0 1 0 800] ------- [0:0 1:0 30 1] [159] 0 0
D 0.096025000 _0_ IFQ  --- 160 cbr 1520 [0 1 0 800] ------- [0:0 1:0 30 1] [160] 0 0
r 0.096114864 _1_ MAC  --- 96 cbr 1520 [13a 1 0 800] ------- [0:0 1:0 30 1] [96] 1 0
s 0.096124864 _1_ MAC  --- 0 ACK 38 [0 0 0 0] 
r 0.096429364 _0_ MAC  --- 0 ACK 38 [0 0 0 0] 
s 0.096639364 _0_ MAC  --- 99 cbr 1578 [13a 1 0 800] ------- [0:0 1:0 30 1] [99] 0 0
D 0.097225000 _0_ IFQ  --- 162 cbr 1520 [0 1 0 800] ------- [0:0 1:0 30 1] [162] 0 0
D 0.097825000 _0_ IFQ  --- 163 cbr 1520 [0 1 0 800] ------- [0:0 1:0 30 1] [163] 0 0
r 0.097962045 _1_ MAC  --- 99 cbr 1520 [13a 1 0 800] ------- [0:0 1:0 30 1] [99] 1 0
s 0.097972045 _1_ MAC  --- 0 ACK 38 [0 0 0 0] 
r 0.098276545 _0_ MAC  --- 0 ACK 38 [0 0 0 0] 
s 0.098546545 _0_ MAC  --- 102 cbr 1578 [13a 1 0 800] ------- [0:0 1:0 30 1] [102] 0 0
D 0.099025000 _0_ IFQ  --- 165 cbr 1520 [0 1 0 800] ------- [0:0 1:0 30 1] [165] 0 0
D 0.099625000 _0_ IFQ  --- 166 cbr 1520 [0 1 0 800] ------- [0:0 1:0 30 1] [166] 0 0
r 0.099869227 _1_ MAC  --- 102 cbr 1520 [13a 1 0 800] ------- [0:0 1:0 30 1] [102] 1 0
s 0.099879227 _1_ MAC  --- 0 ACK 38 [0 0 0 0] 
r 0.100183727 _0_ MAC  --- 0 ACK 38 [0 0 0 0] 
s 0.100313727 _0_ MAC  --- 106 cbr 1578 [13a 1 0 800] ------- [0:0 1:0 30 1] [106] 0 0
D 0.100825000 _0_ IFQ  --- 168 cbr 1520 [0 1 0 800] ------- [0:0 1:0 30 1] [168] 0 0
D 0.101425000 _0_ IFQ  --- 169 cbr 1520 [0 1 0 800] ------- [0:0 1:0 30 1] [169] 0 0
r 0.101636409 _1_ MAC  --- 106 cbr 1520 [13a 1 0 800] ------- [0:0 1:0 30 1] [106] 1 0
s 0.101646409 _1_ MAC  --- 0 ACK 38 [0 0 0 0] 
r 0.101950909 _0_ MAC  --- 0 ACK 38 [0 0 0 0] 
s 0.102300909 _0_ MAC  --- 109 cbr 1578 [13a 1 0 800] ------- [0:0 1:0 30 1] [109] 0 0
D 0.102625000 _0_ IFQ  --- 171 cbr 1520 [0 1 0 800] ------- [0:0 1:0 30 1] [171] 0 0
D 0.103225000 _0_ IFQ  --- 172 cbr 1520 [0 1 0 800] ------- [0:0 1:0 30 1] [172] 0 0
r 0.103623591 _1_ MAC  --- 109 cbr 1520 [13a 1 0 800] ------- [0:0 1:0 30 1] [109] 1 0
s 0.103633591 _1_ MAC  --- 0 ACK 38 [0 0 0 0] 
D 0.103825000 _0_ IFQ  --- 173 cbr 1520 [0 1 0 800] ------- [0:0 1:0 30 1] [173] 0 0
r 0.103938091 _0_ MAC  --- 0 ACK 38 [0 0 0 0] 
s 0.103988091 _0_ MAC  --- 112 cbr 1578 [13a 1 0 800] ------- [0:0 1:0 30 1] [112] 0 0
D 0.105025000 _0_ IFQ  --- 175 cbr 1520 [0 1 0 800] ------- [0:0 1:0 30 1] [175] 0 0
r 0.105310773 _1_ MAC  --- 112 cbr 1520 [13a 1 0 800] ------- [0:0 1:0 30 1] [112] 1 0
s 0.105320773 _1_ MAC  --- 0 ACK 38 [0 0 0 0] 
D 0.105625000 _0_ IFQ  --- 176 cbr 1520 [0 1 0 800] ------- [0:0 1:0 30 1] [176] 0 0
r 0.105625273 _0_ MAC  --- 0 ACK 38 [0 0 0 0] 
s 0.105915273 _0_ MAC  --- 116 cbr 1578 [13a 1 0 800] ------- [0:0 1:0 30 1] [116] 0 0
D 0.106825000 _0_ IFQ  --- 178 cbr 1520 [0 1 0 800] ------- [0:0 1:0 30 1] [178] 0 0
r 0.107237955 _1_ MAC  --- 116 cbr 1520 [13a 1 0 800] ------- [0:0 1:0 30 1] [116] 1 0
s 0.107247955 _1_ MAC  --- 0 ACK 38 [0 0 0 0] 
D 0.107425000 _0_ IFQ  --- 179 cbr 1520 [0 1 0 800] ------- [0:0 1:0 30 1] [179] 0 0
r 0.107552455 _0_ MAC  --- 0 ACK 38 [0 0 0 0] 
s 0.107902455 _0_ MAC  --- 119 cbr 1578 [13a 1 0 800] ------- [0:0 1:0 30 1] [119] 0 0
D 0.108625000 _0_ IFQ  --- 181 cbr 1520 [0 1 0 800] ------- [0:0 1:0 30 1] [181] 0 0
D 0.109225000 _0_ IFQ  --- 182 cbr 1520 [0 1 0 800] ------- [0:0 1:0 30 1] [182] 0 0
r 0.109225136 _1_ MAC  --- 119 cbr 1520 [13a 1 0 800] ------- [0:0 1:0 30 1] [119] 1 0
s 0.109235136 _1_ MAC  --- 0 ACK 38 [0 0 0 0] 
r 0.109539636 _0_ MAC  --- 0 ACK 38 [0 0 0 0] 
s 0.109869636 _0_ MAC  --- 122 cbr 1578 [13a 1 0 800] ------- [0:0 1:0 30 1] [122] 0 0
D 0.110425000 _0_ IFQ  --- 184 cbr 1520 [0 1 0 800] ------- [0:0 1:0 30 1] [184] 0 0
D 0.111025000 _0_ IFQ  --- 185 cbr 1520 [0 1 0 800] ------- [0:0 1:0 30 1] [185] 0 0
r 0.111192318 _1_ MAC  --- 122 cbr 1520 [13a 1 0 800] ------- [0:0 1:0 30 1] [122] 1 0
s 0.111202318 _1_ MAC  --- 0 ACK 38 [0 0 0 0] 
r 0.111506818 _0_ MAC  --- 0 ACK 38 [0 0 0 0] 
s 0.111576818 _0_ MAC  --- 126 cbr 1578 [13a 1 0 800] ------- [0:0 1:0 30 1] [126] 0 0
D 0.112225000 _0_ IFQ  --- 187 cbr 1520 [0 1 0 800] ------- [0:0 1:0 30 1] [187] 0 0
D 0.112825000 _0_ IFQ  --- 188 cbr 1520 [0 1 0 800] ------- [0:0 1:0 30 1] [188] 0 0
r 0.112899500 _1_ MAC  --- 126 cbr 1520 [13a 1 0 800] ------- [0:0 1:0 30 1] [126] 1 0
s 0.112909500 _1_ MAC  --- 0 ACK 38 [0 0 0 0] 
r 0.113214000 _0_ MAC  --- 0 ACK 38 [0 0 0 0] 
s 0.113744000 _0_ MAC  --- 129 cbr 1578 [13a 1 0 800] ------- [0:0 1:0 30 1] [129] 0 0
D 0.114025000 _0_ IFQ  --- 190 cbr 1520 [0 1 0 800] ------- [0:0 1:0 30 1] [190] 0 0
D 0.114625000 _0_ IFQ  --- 191 cbr 1520 [0 1 0 800] ------- [0:0 1:0 30 1] [191] 0 0
r 0.115066682 _1_ MAC  --- 129 cbr 1520 [13a 1 0 800] ------- [0:0 1:0 30 1] [129] 1 0
s 0.115076682 _1_ MAC  --- 0 ACK 38 [0 0 0 0] 
D 0.115225000 _0_ IFQ  --- 192 cbr 1520 [0 1 0 800] ------- [0:0 1:0 30 1] [192] 0 0
r 0.115381182 _0_ MAC  --- 0 ACK 38 [0 0 0 0] 
s 0.115671182 _0_ MAC  --- 132 cbr 1578 [13a 1 0 800] ------- [0:0 1:0 30 1] [132] 0 0
D 0.116425000 _0_ IFQ  --- 194 cbr 1520 [0 1 0 800] ------- [0:0 1:0 30 1] [194] 0 0
r 0.116993864 _1_ MAC  --- 132 cbr 1520 [13a 1 0 800] ------- [0:0 1:0 30 1] [132] 1 0
s 0.117003864 _1_ MAC  --- 0 ACK 38 [0 0 0 0] 
D 0.117025000 _0_ IFQ  --- 195 cbr 1520 [0 1 0 800] ------- [0:0 1:0 30 1] [195] 0 0
r 0.117308364 _0_ MAC  --- 0 ACK 38 [0 0 0 0] 
s 0.117478364 _0_ MAC  --- 135 cbr 1578 [13a 1 0 800] ------- [0:0 1:0 30 1] [135] 0 0
D 0.118225000 _0_ IFQ  --- 197 cbr 1520 [0 1 0 800] ------- [0:0 1:0 30 1] [197] 0 0
r 0.118801045 _1_ MAC  --- 135 cbr 1520 [13a 1 0 800] ------- [0:0 1:0 30 1] [135] 1 0
s 0.118811045 _1_ MAC  --- 0 ACK 38 [0 0 0 0] 
D 0.118825000 _0_ IFQ  --- 198 cbr 1520 [0 1 0 800] ------- [0:0 1:0 30 1] [198] 0 0
r 0.119115545 _0_ MAC  --- 0 ACK 38 [0 0 0 0] 
s 0.119465545 _0_ MAC  --- 139 cbr 1578 [13a 1 0 800] ------- [0:0 1:0 30 1] [139] 0 0
D 0.120025000 _0_ IFQ  --- 200 cbr 1520 [0 1 0 800] ------- [0:0 1:0 30 1] [200] 0 0
D 0.120625000 _0_ IFQ  --- 201 cbr 1520 [0 1 0 800] ------- [0:0 1:0 30 1] [201] 0 0
r 0.120788227 _1_ MAC  --- 139 cbr 1520 [13a 1 0 800] ------- [0:0 1:0 30 1] [139] 1 0
s 0.120798227 _1_ MAC  --- 0 ACK 38 [0 0 0 0] 
r 0.121102727 _0_ MAC  --- 0 ACK 38 [0 0 0 0] 
s 0.121192727 _0_ MAC  --- 142 cbr 1578 [13a 1 0 800] ------- [0:0 1:0 30 1] [142] 0 0
D 0.121825000 _0_ IFQ  --- 203 cbr 1520 [0 1 0 800] ------- [0:0 1:0 30 1] [203] 0 0
D 0.122425000 _0_ IFQ  --- 204 cbr 1520 [0 1 0 800] ------- [0:0 1:0 30 1] [204] 0 0
r 0.122515409 _1_ MAC  --- 142 cbr 1520 [13a 1 0 800] ------- [0:0 1:0 30 1] [142] 1 0
s 0.122525409 _1_ MAC  --- 0 ACK 38 [0 0 0 0] 
r 0.122829909 _0_ MAC  --- 0 ACK 38 [0 0 0 0] 
s 0.123339909 _0_ MAC  --- 145 cbr 1578 [13a 1 0 800] ------- [0:0 1:0 30 1] [145] 0 0
D 0.123625000 _0_ IFQ  --- 206 cbr 1520 [0 1 0 800] ------- [0:0 1:0 30 1] [206] 0 0
D 0.124225000 _0_ IFQ  --- 207 cbr 1520 [0 1 0 800] ------- [0:0 1:0 30 1] [207] 0 0
r 0.124662591 _1_ MAC  --- 145 cbr 1520 [13a 1 0 800] ------- [0:0 1:0 30 1] [145] 1 0
s 0.124672591 _1_ MAC  --- 0 ACK 38 [0 0 0 0] 
D 0.124825000 _0_ IFQ  --- 208 cbr 1520 [0 1 0 800] ------- [0:0 1:0 30 1] [208] 0 0
r 0.124977091 _0_ MAC  --- 0 ACK 38 [0 0 0 0] 
s 0.125147091 _0_ MAC  --- 148 cbr 1578 [13a 1 0 800] ------- [0:0 1:0 30 1] [148] 0 0
D 0.126025000 _0_ IFQ  --- 210 cbr 1520 [0 1 0 800] ------- [0:0 1:0 30 1] [210] 0 0
r 0.126469773 _1_ MAC  --- 148 cbr 1520 [13a 1 0 800] ------- [0:0 1:0 30 1] [148] 1 0
s 0.126479773 _1_ MAC  --- 0 ACK 38 [0 0 0 0] 
D 0.126625000 _0_ IFQ  --- 211 cbr 1520 [0 1 0 800] ------- [0:0 1:0 30 1] [211] 0 0
r 0.126784273 _0_ MAC  --- 0 ACK 38 [0 0 0 0] 
s 0.127034273 _0_ MAC  --- 152 cbr 1578 [13a 1 0 800] ------- [0:0 1:0 30 1] [152] 0 0
D 0.127825000 _0_ IFQ  --- 213 cbr 1520 [0 1 0 800] ------- [0:0 1:0 30 1] [213] 0 0
r 0.128356955 _1_ MAC  --- 152 cbr 1520 [13a 1 0 800] ------- [0:0 1:0 30 1] [152] 1 0
s 0.128366955 _1_ MAC  --- 0 ACK 38 [0 0 0 0] 
D 0.128425000 _0_ IFQ  --- 214 cbr 1520 [0 1 0 800] ------- [0:0 1:0 30 1] [214] 0 0
r 0.128671455 _0_ MAC  --- 0 ACK 38 [0 0 0 0] 
s 0.128821455 _0_ MAC  --- 155 cbr 1578 [13a 1 0 800] ------- [0:0 1:0 30 1] [155] 0 0
D 0.129625000 _0_ IFQ  --- 216 cbr 1520 [0 1 0 800] ------- [0:0 1:0 30 1] [216] 0 0
r 0.130144136 _1_ MAC  --- 155 cbr 1520 [13a 1 0 800] ------- [0:0 1:0 30 1] [155] 1 0
s 0.130154136 _1_ MAC  --- 0 ACK 38 [0 0 0 0] 
D 0.130225000 _0_ IFQ  --- 217 cbr 1520 [0 1 0 800] ------- [0:0 1:0 30 1] [217] 0 0
r 0.130458636 _0_ MAC  --- 0 ACK 38 [0 0 0 0] 
s 0.130588636 _0_ MAC  --- 158 cbr 1578 [13a 1 0 800] ------- [0:0 1:0 30 1] [158] 0 0
D 0.131425000 _0_ IFQ  --- 219 cbr 1520 [0 1 0 800] ------- [0:0 1:0 30 1] [219] 0 0
r 0.131911318 _1_ MAC  --- 158 cbr 1520 [13a 1 0 800] ------- [0:0 1:0 30 1] [158] 1 0
s 0.131921318 _1_ MAC  --- 0 ACK 38 [0 0 0 0] 
D 0.132025000 _0_ IFQ  --- 220 cbr 1520 [0 1 0 800] ------- [0:0 1:0 30 1] [220] 0 0
r 0.132225818 _0_ MAC  --- 0 ACK 38 [0 0 0 0] 
s 0.132535818 _0_ MAC  --- 161 cbr 1578 [13a 1 0 800] ------- [0:0 1:0 30 1] [161] 0 0