n -t * -s 0  -x 0 -y 150 -Z 0 -z 30  -v circle -c black
n -t * -s 1  -x 150 -y 150 -Z 0 -z 30  -v circle -c black
V -t * -v 1.0a5 -a 0
W -t * -x 500 -y 500
A -t * -n 1 -p 0 -o 0x7fffffff -c 30 -a 1
A -t * -h 1 -m 1073741823 -s 0
+ -t 0.000535000 -s 0 -d -1 -p AODV -e 106 -c 2 -a 0 -i 0 -k MAC 
- -t 0.000535000 -s 0 -d -1 -p AODV -e 106 -c 2 -a 0 -i 0 -k MAC
h -t 0.000535000 -s 0 -d -1 -p AODV -e 106 -c 2 -a 0 -i 0 -k MAC
r -t 0.001383500 -s 1 -d -1 -p AODV -e 48 -c 2 -a 0 -i 0 -k MAC
+ -t 0.002023500 -s 1 -d -1 -p ARP -e 86 -c 2 -a 0 -i 0 -k MAC 
- -t 0.002023500 -s 1 -d -1 -p ARP -e 86 -c 2 -a 0 -i 0 -k MAC
h -t 0.002023500 -s 1 -d -1 -p ARP -e 86 -c 2 -a 0 -i 0 -k MAC
r -t 0.002712000 -s 0 -d -1 -p ARP -e 28 -c 2 -a 0 -i 0 -k MAC
+ -t 0.003087000 -s 0 -d -1 -p ARP -e 86 -c 2 -a 0 -i 0 -k MAC 
- -t 0.003087000 -s 0 -d -1 -p ARP -e 86 -c 2 -a 0 -i 0 -k MAC
h -t 0.003087000 -s 0 -d -1 -p ARP -e 86 -c 2 -a 0 -i 0 -k MAC
r -t 0.003324591 -s 1 -d -1 -p ARP -e 28 -c 2 -a 0 -i 0 -k MAC
+ -t 0.003334591 -s 1 -d -1 -p ACK -e 38 -c 2 -a 0 -i 0 -k MAC 
- -t 0.003334591 -s 1 -d -1 -p ACK -e 38 -c 2 -a 0 -i 0 -k MAC
h -t 0.003334591 -s 1 -d -1 -p ACK -e 38 -c 2 -a 0 -i 0 -k MAC
r -t 0.003639091 -s 0 -d -1 -p ACK -e 38 -c 2 -a 0 -i 0 -k MAC
+ -t 0.003688591 -s 1 -d 0 -p AODV -e 102 -c 2 -a 0 -i 0 -k MAC 
- -t 0.003688591 -s 1 -d 0 -p AODV -e 102 -c 2 -a 0 -i 0 -k MAC
h -t 0.003688591 -s 1 -d 0 -p AODV -e 102 -c 2 -a 0 -i 0 -k MAC
r -t 0.003937818 -s 0 -d 0 -p AODV -e 44 -c 2 -a 0 -i 0 -k MAC
+ -t 0.003947818 -s 0 -d -1 -p ACK -e 38 -c 2 -a 0 -i 0 -k MAC 
- -t 0.003947818 -s 0 -d -1 -p ACK -e 38 -c 2 -a 0 -i 0 -k MAC
h -t 0.003947818 -s 0 -d -1 -p ACK -e 38 -c 2 -a 0 -i 0 -k MAC
r -t 0.004252318 -s 1 -d -1 -p ACK -e 38 -c 2 -a 0 -i 0 -k MAC
+ -t 0.004461818 -s 0 -d 1 -p cbr -e 1578 -c 2 -a 0 -i 0 -k MAC 
- -t 0.004461818 -s 0 -d 1 -p cbr -e 1578 -c 2 -a 0 -i 0 -k MAC
h -t 0.004461818 -s 0 -d 1 -p cbr -e 1578 -c 2 -a 0 -i 0 -k MAC
r -t 0.005784500 -s 1 -d 1 -p cbr -e 1520 -c 2 -a 0 -i 0 -k MAC
+ -t 0.005794500 -s 1 -d -1 -p ACK -e 38 -c 2 -a 0 -i 0 -k MAC 
- -t 0.005794500 -s 1 -d -1 -p ACK -e 38 -c 2 -a 0 -i 0 -k MAC
h -t 0.005794500 -s 1 -d -1 -p ACK -e 38 -c 2 -a 0 -i 0 -k MAC
r -t 0.006099000 -s 0 -d -1 -p ACK -e 38 -c 2 -a 0 -i 0 -k MAC
+ -t 0.006389000 -s 0 -d 1 -p cbr -e 1578 -c 2 -a 0 -i 7 -k MAC 
- -t 0.006389000 -s 0 -d 1 -p cbr -e 1578 -c 2 -a 0 -i 7 -k MAC
h -t 0.006389000 -s 0 -d 1 -p cbr -e 1578 -c 2 -a 0 -i 7 -k MAC
r -t 0.007711682 -s 1 -d 1 -p cbr -e 1520 -c 2 -a 0 -i 7 -k MAC
+ -t 0.007721682 -s 1 -d -1 -p ACK -e 38 -c 2 -a 0 -i 0 -k MAC 
- -t 0.007721682 -s 1 -d -1 -p ACK -e 38 -c 2 -a 0 -i 0 -k MAC
h -t 0.007721682 -s 1 -d -1 -p ACK -e 38 -c 2 -a 0 -i 0 -k MAC
r -t 0.008026182 -s 0 -d -1 -p ACK -e 38 -c 2 -a 0 -i 0 -k MAC
+ -t 0.008436182 -s 0 -d 1 -p cbr -e 1578 -c 2 -a 0 -i 8 -k MAC 
- -t 0.008436182 -s 0 -d 1 -p cbr -e 1578 -c 2 -a 0 -i 8 -k MAC
h -t 0.008436182 -s 0 -d 1 -p cbr -e 1578 -c 2 -a 0 -i 8 -k MAC
r -t 0.009758864 -s 1 -d 1 -p cbr -e 1520 -c 2 -a 0 -i 8 -k MAC
+ -t 0.009768864 -s 1 -d -1 -p ACK -e 38 -c 2 -a 0 -i 0 -k MAC 
- -t 0.009768864 -s 1 -d -1 -p ACK -e 38 -c 2 -a 0 -i 0 -k MAC
h -t 0.009768864 -s 1 -d -1 -p ACK -e 38 -c 2 -a 0 -i 0 -k MAC
r -t 0.010073364 -s 0 -d -1 -p ACK -e 38 -c 2 -a 0 -i 0 -k MAC
+ -t 0.010383364 -s 0 -d 1 -p cbr -e 1578 -c 2 -a 0 -i 9 -k MAC 
- -t 0.010383364 -s 0 -d 1 -p cbr -e 1578 -c 2 -a 0 -i 9 -k MAC
h -t 0.010383364 -s 0 -d 1 -p cbr -e 1578 -c 2 -a 0 -i 9 -k MAC
r -t 0.011706045 -s 1 -d 1 -p cbr -e 1520 -c 2 -a 0 -i 9 -k MAC
+ -t 0.011716045 -s 1 -d -1 -p ACK -e 38 -c 2 -a 0 -i 0 -k MAC 
- -t 0.011716045 -s 1 -d -1 -p ACK -e 38 -c 2 -a 0 -i 0 -k MAC
h -t 0.011716045 -s 1 -d -1 -p ACK -e 38 -c 2 -a 0 -i 0 -k MAC
r -t 0.012020545 -s 0 -d -1 -p ACK -e 38 -c 2 -a 0 -i 0 -k MAC
+ -t 0.012310545 -s 0 -d 1 -p cbr -e 1578 -c 2 -a 0 -i 10 -k MAC 
- -t 0.012310545 -s 0 -d 1 -p cbr -e 1578 -c 2 -a 0 -i 10 -k MAC
h -t 0.012310545 -s 0 -d 1 -p cbr -e 1578 -c 2 -a 0 -i 10 -k MAC
r -t 0.013633227 -s 1 -d 1 -p cbr -e 1520 -c 2 -a 0 -i 10 -k MAC
+ -t 0.013643227 -s 1 -d -1 -p ACK -e 38 -c 2 -a 0 -i 0 -k MAC 
- -t 0.013643227 -s 1 -d -1 -p ACK -e 38 -c 2 -a 0 -i 0 -k MAC
h -t 0.013643227 -s 1 -d -1 -p ACK -e 38 -c 2 -a 0 -i 0 -k MAC
r -t 0.013947727 -s 0 -d -1 -p ACK -e 38 -c 2 -a 0 -i 0 -k MAC
+ -t 0.014037727 -s 0 -d 1 -p cbr -e 1578 -c 2 -a 0 -i 11 -k MAC 
- -t 0.014037727 -s 0 -d 1 -p cbr -e 1578 -c 2 -a 0 -i 11 -k MAC
h -t 0.014037727 -s 0 -d 1 -p cbr -e 1578 -c 2 -a 0 -i 11 -k MAC
r -t 0.015360409 -s 1 -d 1 -p cbr -e 1520 -c 2 -a 0 -i 11 -k MAC
+ -t 0.015370409 -s 1 -d -1 -p ACK -e 38 -c 2 -a 0 -i 0 -k MAC 
- -t 0.015370409 -s 1 -d -1 -p ACK -e 38 -c 2 -a 0 -i 0 -k MAC
h -t 0.015370409 -s 1 -d -1 -p ACK -e 38 -c 2 -a 0 -i 0 -k MAC
r -t 0.015674909 -s 0 -d -1 -p ACK -e 38 -c 2 -a 0 -i 0 -k MAC
+ -t 0.016264909 -s 0 -d 1 -p cbr -e 1578 -c 2 -a 0 -i 12 -k MAC 
- -t 0.016264909 -s 0 -d 1 -p cbr -e 1578 -c 2 -a 0 -i 12 -k MAC
h -t 0.016264909 -s 0 -d 1 -p cbr -e 1578 -c 2 -a 0 -i 12 -k MAC
r -t 0.017587591 -s 1 -d 1 -p cbr -e 1520 -c 2 -a 0 -i 12 -k MAC
+ -t 0.017597591 -s 1 -d -1 -p ACK -e 38 -c 2 -a 0 -i 0 -k MAC 
- -t 0.017597591 -s 1 -d -1 -p ACK -e 38 -c 2 -a 0 -i 0 -k MAC
h -t 0.017597591 -s 1 -d -1 -p ACK -e 38 -c 2 -a 0 -i 0 -k MAC
r -t 0.017902091 -s 0 -d -1 -p ACK -e 38 -c 2 -a 0 -i 0 -k MAC
+ -t 0.018112091 -s 0 -d 1 -p cbr -e 1578 -c 2 -a 0 -i 13 -k MAC 
- -t 0.018112091 -s 0 -d 1 -p cbr -e 1578 -c 2 -a 0 -i 13 -k MAC
h -t 0.018112091 -s 0 -d 1 -p cbr -e 1578 -c 2 -a 0 -i 13 -k MAC
d -t 0.019225000 -s 0 -d 1 -p cbr -e 1520 -c 2 -a 0 -i 32 -k IFQ
r -t 0.019434773 -s 1 -d 1 -p cbr -e 1520 -c 2 -a 0 -i 13 -k MAC
+ -t 0.019444773 -s 1 -d -1 -p ACK -e 38 -c 2 -a 0 -i 0 -k MAC 
- -t 0.019444773 -s 1 -d -1 -p ACK -e 38 -c 2 -a 0 -i 0 -k MAC
h -t 0.019444773 -s 1 -d -1 -p ACK -e 38 -c 2 -a 0 -i 0 -k MAC
r -t 0.019749273 -s 0 -d -1 -p ACK -e 38 -c 2 -a 0 -i 0 -k MAC
+ -t 0.020159273 -s 0 -d 1 -p cbr -e 1578 -c 2 -a 0 -i 14 -k MAC 
- -t 0.020159273 -s 0 -d 1 -p cbr -e 1578 -c 2 -a 0 -i 14 -k MAC
h -t 0.020159273 -s 0 -d 1 -p cbr -e 1578 -c 2 -a 0 -i 14 -k MAC
d -t 0.020425000 -s 0 -d 1 -p cbr -e 1520 -c 2 -a 0 -i 34 -k IFQ
d -t 0.021025000 -s 0 -d 1 -p cbr -e 1520 -c 2 -a 0 -i 35 -k IFQ
r -t 0.021481955 -s 1 -d 1 -p cbr -e 1520 -c 2 -a 0 -i 14 -k MAC
+ -t 0.021491955 -s 1 -d -1 -p ACK -e 38 -c 2 -a 0 -i 0 -k MAC 
- -t 0.021491955 -s 1 -d -1 -p ACK -e 38 -c 2 -a 0 -i 0 -k MAC
h -t 0.021491955 -s 1 -d -1 -p ACK -e 38 -c 2 -a 0 -i 0 -k MAC
d -t 0.021625000 -s 0 -d 1 -p cbr -e 1520 -c 2 -a 0 -i 36 -k IFQ
r -t 0.021796455 -s 0 -d -1 -p ACK -e 38 -c 2 -a 0 -i 0 -k MAC
+ -t 0.022086455 -s 0 -d 1 -p cbr -e 1578 -c 2 -a 0 -i 15 -k MAC 
- -t 0.022086455 -s 0 -d 1 -p cbr -e 1578 -c 2 -a 0 -i 15 -k MAC
h -t 0.022086455 -s 0 -d 1 -p cbr -e 1578 -c 2 -a 0 -i 15 -k MAC
d -t 0.022825000 -s 0 -d 1 -p cbr -e 1520 -c 2 -a 0 -i 38 -k IFQ
r -t 0.023409136 -s 1 -d 1 -p cbr -e 1520 -c 2 -a 0 -i 15 -k MAC
+ -t 0.023419136 -s 1 -d -1 -p ACK -e 38 -c 2 -a 0 -i 0 -k MAC 
- -t 0.023419136 -s 1 -d -1 -p ACK -e 38 -c 2 -a 0 -i 0 -k MAC
h -t 0.023419136 -s 1 -d -1 -p ACK -e 38 -c 2 -a 0 -i 0 -k MAC
d -t 0.023425000 -s 0 -d 1 -p cbr -e 1520 -c 2 -a 0 -i 39 -k IFQ
r -t 0.023723636 -s 0 -d -1 -p ACK -e 38 -c 2 -a 0 -i 0 -k MAC
+ -t 0.023933636 -s 0 -d 1 -p cbr -e 1578 -c 2 -a 0 -i 16 -k MAC 
- -t 0.023933636 -s 0 -d 1 -p cbr -e 1578 -c 2 -a 0 -i 16 -k MAC
h -t 0.023933636 -s 0 -d 1 -p cbr -e 1578 -c 2 -a 0 -i 16 -k MAC
d -t 0.024025000 -s 0 -d 1 -p cbr -e 1520 -c 2 -a 0 -i 40 -k IFQ
d -t 0.024625000 -s 0 -d 1 -p cbr -e 1520 -c 2 -a 0 -i 41 -k IFQ
d -t 0.025225000 -s 0 -d 1 -p cbr -e 1520 -c 2 -a 0 -i 42 -k IFQ
r -t 0.025256318 -s 1 -d 1 -p cbr -e 1520 -c 2 -a 0 -i 16 -k MAC
+ -t 0.025266318 -s 1 -d -1 -p ACK -e 38 -c 2 -a 0 -i 0 -k MAC 
- -t 0.025266318 -s 1 -d -1 -p ACK -e 38 -c 2 -a 0 -i 0 -k MAC
h -t 0.025266318 -s 1 -d -1 -p ACK -e 38 -c 2 -a 0 -i 0 -k MAC
r -t 0.025570818 -s 0 -d -1 -p ACK -e 38 -c 2 -a 0 -i 0 -k MAC
+ -t 0.026100818 -s 0 -d 1 -p cbr -e 1578 -c 2 -a 0 -i 17 -k MAC 
- -t 0.026100818 -s 0 -d 1 -p cbr -e 1578 -c 2 -a 0 -i 17 -k MAC
h -t 0.026100818 -s 0 -d 1 -p cbr -e 1578 -c 2 -a 0 -i 17 -k MAC
d -t 0.026425000 -s 0 -d 1 -p cbr -e 1520 -c 2 -a 0 -i 44 -k IFQ
d -t 0.027025000 -s 0 -d 1 -p cbr -e 1520 -c 2 -a 0 -i 45 -k IFQ
r -t 0.027423500 -s 1 -d 1 -p cbr -e 1520 -c 2 -a 0 -i 17 -k MAC
+ -t 0.027433500 -s 1 -d -1 -p ACK -e 38 -c 2 -a 0 -i 0 -k MAC 
- -t 0.027433500 -s 1 -d -1 -p ACK -e 38 -c 2 -a 0 -i 0 -k MAC
h -t 0.027433500 -s 1 -d -1 -p ACK -e 38 -c 2 -a 0 -i 0 -k MAC
d -t 0.027625000 -s 0 -d 1 -p cbr -e 1520 -c 2 -a 0 -i 46 -k IFQ
r -t 0.027738000 -s 0 -d -1 -p ACK -e 38 -c 2 -a 0 -i 0 -k MAC
+ -t 0.028128000 -s 0 -d 1 -p cbr -e 1578 -c 2 -a 0 -i 18 -k MAC 
- -t 0.028128000 -s 0 -d 1 -p cbr -e 1578 -c 2 -a 0 -i 18 -k MAC
h -t 0.028128000 -s 0 -d 1 -p cbr -e 1578 -c 2 -a 0 -i 18 -k MAC
d -t 0.028825000 -s 0 -d 1 -p cbr -e 1520 -c 2 -a 0 -i 48 -k IFQ
d -t 0.029425000 -s 0 -d 1 -p cbr -e 1520 -c 2 -a 0 -i 49 -k IFQ
r -t 0.029450682 -s 1 -d 1 -p cbr -e 1520 -c 2 -a 0 -i 18 -k MAC
+ -t 0.029460682 -s 1 -d -1 -p ACK -e 38 -c 2 -a 0 -i 0 -k MAC 
- -t 0.029460682 -s 1 -d -1 -p ACK -e 38 -c 2 -a 0 -i 0 -k MAC
h -t 0.029460682 -s 1 -d -1 -p ACK -e 38 -c 2 -a 0 -i 0 -k MAC
r -t 0.029765182 -s 0 -d -1 -p ACK -e 38 -c 2 -a 0 -i 0 -k MAC
+ -t 0.030135182 -s 0 -d 1 -p cbr -e 1578 -c 2 -a 0 -i 19 -k MAC 
- -t 0.030135182 -s 0 -d 1 -p cbr -e 1578 -c 2 -a 0 -i 19 -k MAC
h -t 0.030135182 -s 0 -d 1 -p cbr -e 1578 -c 2 -a 0 -i 19 -k MAC
d -t 0.030625000 -s 0 -d 1 -p cbr -e 1520 -c 2 -a 0 -i 51 -k IFQ
d -t 0.031225000 -s 0 -d 1 -p cbr -e 1520 -c 2 -a 0 -i 52 -k IFQ
r -t 0.031457864 -s 1 -d 1 -p cbr -e 1520 -c 2 -a 0 -i 19 -k MAC
+ -t 0.031467864 -s 1 -d -1 -p ACK -e 38 -c 2 -a 0 -i 0 -k MAC 
- -t 0.031467864 -s 1 -d -1 -p ACK -e 38 -c 2 -a 0 -i 0 -k MAC
h -t 0.031467864 -s 1 -d -1 -p ACK -e 38 -c 2 -a 0 -i 0 -k MAC
r -t 0.031772364 -s 0 -d -1 -p ACK -e 38 -c 2 -a 0 -i 0 -k MAC
+ -t 0.032022364 -s 0 -d 1 -p cbr -e 1578 -c 2 -a 0 -i 20 -k MAC 
- -t 0.032022364 -s 0 -d 1 -p cbr -e 1578 -c 2 -a 0 -i 20 -k MAC
h -t 0.032022364 -s 0 -d 1 -p cbr -e 1578 -c 2 -a 0 -i 20 -k MAC
d -t 0.032425000 -s 0 -d 1 -p cbr -e 1520 -c 2 -a 0 -i 54 -k IFQ
d -t 0.033025000 -s 0 -d 1 -p cbr -e 1520 -c 2 -a 0 -i 55 -k IFQ
r -t 0.033345045 -s 1 -d 1 -p cbr -e 1520 -c 2 -a 0 -i 20 -k MAC
+ -t 0.033355045 -s 1 -d -1 -p ACK -e 38 -c 2 -a 0 -i 0 -k MAC 
- -t 0.033355045 -s 1 -d -1 -p ACK -e 38 -c 2 -a 0 -i 0 -k MAC
h -t 0.033355045 -s 1 -d -1 -p ACK -e 38 -c 2 -a 0 -i 0 -k MAC
d -t 0.033625000 -s 0 -d 1 -p cbr -e 1520 -c 2 -a 0 -i 56 -k IFQ
r -t 0.033659545 -s 0 -d -1 -p ACK -e 38 -c 2 -a 0 -i 0 -k MAC
+ -t 0.033929545 -s 0 -d 1 -p cbr -e 1578 -c 2 -a 0 -i 21 -k MAC 
- -t 0.033929545 -s 0 -d 1 -p cbr -e 1578 -c 2 -a 0 -i 21 -k MAC
h -t 0.033929545 -s 0 -d 1 -p cbr -e 1578 -c 2 -a 0 -i 21 -k MAC
d -t 0.034225000 -s 0 -d 1 -p cbr -e 1520 -c 2 -a 0 -i 57 -k IFQ
d -t 0.034825000 -s 0 -d 1 -p cbr -e 1520 -c 2 -a 0 -i 58 -k IFQ
r -t 0.035252227 -s 1 -d 1 -p cbr -e 1520 -c 2 -a 0 -i 21 -k MAC
+ -t 0.035262227 -s 1 -d -1 -p ACK -e 38 -c 2 -a 0 -i 0 -k MAC 
- -t 0.035262227 -s 1 -d -1 -p ACK -e 38 -c 2 -a 0 -i 0 -k MAC
h -t 0.035262227 -s 1 -d -1 -p ACK -e 38 -c 2 -a 0 -i 0 -k MAC
d -t 0.035425000 -s 0 -d 1 -p cbr -e 1520 -c 2 -a 0 -i 59 -k IFQ
r -t 0.035566727 -s 0 -d -1 -p ACK -e 38 -c 2 -a 0 -i 0 -k MAC
+ -t 0.035636727 -s 0 -d 1 -p cbr -e 1578 -c 2 -a 0 -i 22 -k MAC 
- -t 0.035636727 -s 0 -d 1 -p cbr -e 1578 -c 2 -a 0 -i 22 -k MAC
h -t 0.035636727 -s 0 -d 1 -p cbr -e 1578 -c 2 -a 0 -i 22 -k MAC
d -t 0.036625000 -s 0 -d 1 -p cbr -e 1520 -c 2 -a 0 -i 61 -k IFQ
r -t 0.036959409 -s 1 -d 1 -p cbr -e 1520 -c 2 -a 0 -i 22 -k MAC
+ -t 0.036969409 -s 1 -d -1 -p ACK -e 38 -c 2 -a 0 -i 0 -k MAC 
- -t 0.036969409 -s 1 -d -1 -p ACK -e 38 -c 2 -a 0 -i 0 -k MAC
h -t 0.036969409 -s 1 -d -1 -p ACK -e 38 -c 2 -a 0 -i 0 -k MAC
d -t 0.037225000 -s 0 -d 1 -p cbr -e 1520 -c 2 -a 0 -i 62 -k IFQ
r -t 0.037273909 -s 0 -d -1 -p ACK -e 38 -c 2 -a 0 -i 0 -k MAC
+ -t 0.037563909 -s 0 -d 1 -p cbr -e 1578 -c 2 -a 0 -i 23 -k MAC 
- -t 0.037563909 -s 0 -d 1 -p cbr -e 1578 -c 2 -a 0 -i 23 -k MAC
h -t 0.037563909 -s 0 -d 1 -p cbr -e 1578 -c 2 -a 0 -i 23 -k MAC
d -t 0.038425000 -s 0 -d 1 -p cbr -e 1520 -c 2 -a 0 -i 64 -k IFQ
r -t 0.038886591 -s 1 -d 1 -p cbr -e 1520 -c 2 -a 0 -i 23 -k MAC
+ -t 0.038896591 -s 1 -d -1 -p ACK -e 38 -c 2 -a 0 -i 0 -k MAC 
- -t 0.038896591 -s 1 -d -1 -p ACK -e 38 -c 2 -a 0 -i 0 -k MAC
h -t 0.038896591 -s 1 -d -1 -p ACK -e 38 -c 2 -a 0 -i 0 -k MAC
d -t 0.039025000 -s 0 -d 1 -p cbr -e 1520 -c 2 -a 0 -i 65 -k IFQ
r -t 0.039201091 -s 0 -d -1 -p ACK -e 38 -c 2 -a 0 -i 0 -k MAC
+ -t 0.039691091 -s 0 -d 1 -p cbr -e 1578 -c 2 -a 0 -i 1 -k MAC 
- -t 0.039691091 -s 0 -d 1 -p cbr -e 1578 -c 2 -a 0 -i 1 -k MAC
h -t 0.039691091 -s 0 -d 1 -p cbr -e 1578 -c 2 -a 0 -i 1 -k MAC
d -t 0.040225000 -s 0 -d 1 -p cbr -e 1520 -c 2 -a 0 -i 67 -k IFQ
d -t 0.040825000 -s 0 -d 1 -p cbr -e 1520 -c 2 -a 0 -i 68 -k IFQ
r -t 0.041013773 -s 1 -d 1 -p cbr -e 1520 -c 2 -a 0 -i 1 -k MAC
+ -t 0.041023773 -s 1 -d -1 -p ACK -e 38 -c 2 -a 0 -i 0 -k MAC 
- -t 0.041023773 -s 1 -d -1 -p ACK -e 38 -c 2 -a 0 -i 0 -k MAC
h -t 0.041023773 -s 1 -d -1 -p ACK -e 38 -c 2 -a 0 -i 0 -k MAC
r -t 0.041328273 -s 0 -d -1 -p ACK -e 38 -c 2 -a 0 -i 0 -k MAC
+ -t 0.041558273 -s 0 -d 1 -p cbr -e 1578 -c 2 -a 0 -i 24 -k MAC 
- -t 0.041558273 -s 0 -d 1 -p cbr -e 1578 -c 2 -a 0 -i 24 -k MAC
h -t 0.041558273 -s 0 -d 1 -p cbr -e 1578 -c 2 -a 0 -i 24 -k MAC
d -t 0.042025000 -s 0 -d 1 -p cbr -e 1520 -c 2 -a 0 -i 70 -k IFQ
d -t 0.042625000 -s 0 -d 1 -p cbr -e 1520 -c 2 -a 0 -i 71 -k IFQ
r -t 0.042880955 -s 1 -d 1 -p cbr -e 1520 -c 2 -a 0 -i 24 -k MAC
+ -t 0.042890955 -s 1 -d -1 -p ACK -e 38 -c 2 -a 0 -i 0 -k MAC 
- -t 0.042890955 -s 1 -d -1 -p ACK -e 38 -c 2 -a 0 -i 0 -k MAC
h -t 0.042890955 -s 1 -d -1 -p ACK -e 38 -c 2 -a 0 -i 0 -k MAC
r -t 0.043195455 -s 0 -d -1 -p ACK -e 38 -c 2 -a 0 -i 0 -k MAC
d -t 0.043825000 -s 0 -d 1 -p cbr -e 1520 -c 2 -a 0 -i 73 -k IFQ
+ -t 0.043825455 -s 0 -d 1 -p cbr -e 1578 -c 2 -a 0 -i 25 -k MAC 
- -t 0.043825455 -s 0 -d 1 -p cbr -e 1578 -c 2 -a 0 -i 25 -k MAC
h -t 0.043825455 -s 0 -d 1 -p cbr -e 1578 -c 2 -a 0 -i 25 -k MAC
d -t 0.043987818 -s 0 -d 1 -p cbr -e 1520 -c 2 -a 0 -i 4 -k IFQ
d -t 0.044425000 -s 0 -d 1 -p cbr -e 1520 -c 2 -a 0 -i 74 -k IFQ
d -t 0.045025000 -s 0 -d 1 -p cbr -e 1520 -c 2 -a 0 -i 75 -k IFQ
r -t 0.045148136 -s 1 -d 1 -p cbr -e 1520 -c 2 -a 0 -i 25 -k MAC
+ -t 0.045158136 -s 1 -d -1 -p ACK -e 38 -c 2 -a 0 -i 0 -k MAC 
- -t 0.045158136 -s 1 -d -1 -p ACK -e 38 -c 2 -a 0 -i 0 -k MAC
h -t 0.045158136 -s 1 -d -1 -p ACK -e 38 -c 2 -a 0 -i 0 -k MAC
r -t 0.045462636 -s 0 -d -1 -p ACK -e 38 -c 2 -a 0 -i 0 -k MAC
+ -t 0.045912636 -s 0 -d 1 -p cbr -e 1578 -c 2 -a 0 -i 26 -k MAC 
- -t 0.045912636 -s 0 -d 1 -p cbr -e 1578 -c 2 -a 0 -i 26 -k MAC
h -t 0.045912636 -s 0 -d 1 -p cbr -e 1578 -c 2 -a 0 -i 26 -k MAC
d -t 0.046225000 -s 0 -d 1 -p cbr -e 1520 -c 2 -a 0 -i 77 -k IFQ
d -t 0.046825000 -s 0 -d 1 -p cbr -e 1520 -c 2 -a 0 -i 78 -k IFQ
r -t 0.047235318 -s 1 -d 1 -p cbr -e 1520 -c 2 -a 0 -i 26 -k MAC
+ -t 0.047245318 -s 1 -d -1 -p ACK -e 38 -c 2 -a 0 -i 0 -k MAC 
- -t 0.047245318 -s 1 -d -1 -p ACK -e 38 -c 2 -a 0 -i 0 -k MAC
h -t 0.047245318 -s 1 -d -1 -p ACK -e 38 -c 2 -a 0 -i 0 -k MAC
d -t 0.047425000 -s 0 -d 1 -p cbr -e 1520 -c 2 -a 0 -i 79 -k IFQ
r -t 0.047549818 -s 0 -d -1 -p ACK -e 38 -c 2 -a 0 -i 0 -k MAC
+ -t 0.048139818 -s 0 -d 1 -p cbr -e 1578 -c 2 -a 0 -i 27 -k MAC 
- -t 0.048139818 -s 0 -d 1 -p cbr -e 1578 -c 2 -a 0 -i 27 -k MAC
h -t 0.048139818 -s 0 -d 1 -p cbr -e 1578 -c 2 -a 0 -i 27 -k MAC
d -t 0.048625000 -s 0 -d 1 -p cbr -e 1520 -c 2 -a 0 -i 81 -k IFQ
d -t 0.049225000 -s 0 -d 1 -p cbr -e 1520 -c 2 -a 0 -i 82 -k IFQ
r -t 0.049462500 -s 1 -d 1 -p cbr -e 1520 -c 2 -a 0 -i 27 -k MAC
+ -t 0.049472500 -s 1 -d -1 -p ACK -e 38 -c 2 -a 0 -i 0 -k MAC 
- -t 0.049472500 -s 1 -d -1 -p ACK -e 38 -c 2 -a 0 -i 0 -k MAC
h -t 0.049472500 -s 1 -d -1 -p ACK -e 38 -c 2 -a 0 -i 0 -k MAC
r -t 0.049777000 -s 0 -d -1 -p ACK -e 38 -c 2 -a 0 -i 0 -k MAC
+ -t 0.050187000 -s 0 -d 1 -p cbr -e 1578 -c 2 -a 0 -i 28 -k MAC 
- -t 0.050187000 -s 0 -d 1 -p cbr -e 1578 -c 2 -a 0 -i 28 -k MAC
h -t 0.050187000 -s 0 -d 1 -p cbr -e 1578 -c 2 -a 0 -i 28 -k MAC
d -t 0.050425000 -s 0 -d 1 -p cbr -e 1520 -c 2 -a 0 -i 84 -k IFQ
d -t 0.051025000 -s 0 -d 1 -p cbr -e 1520 -c 2 -a 0 -i 85 -k IFQ
r -t 0.051509682 -s 1 -d 1 -p cbr -e 1520 -c 2 -a 0 -i 28 -k MAC
+ -t 0.051519682 -s 1 -d -1 -p ACK -e 38 -c 2 -a 0 -i 0 -k MAC 
- -t 0.051519682 -s 1 -d -1 -p ACK -e 38 -c 2 -a 0 -i 0 -k MAC
h -t 0.051519682 -s 1 -d -1 -p ACK -e 38 -c 2 -a 0 -i 0 -k MAC
d -t 0.051625000 -s 0 -d 1 -p cbr -e 1520 -c 2 -a 0 -i 86 -k IFQ
r -t 0.051824182 -s 0 -d -1 -p ACK -e 38 -c 2 -a 0 -i 0 -k MAC
+ -t 0.051914182 -s 0 -d 1 -p cbr -e 1578 -c 2 -a 0 -i 29 -k MAC 
- -t 0.051914182 -s 0 -d 1 -p cbr -e 1578 -c 2 -a 0 -i 29 -k MAC
h -t 0.051914182 -s 0 -d 1 -p cbr -e 1578 -c 2 -a 0 -i 29 -k MAC
d -t 0.052825000 -s 0 -d 1 -p cbr -e 1520 -c 2 -a 0 -i 88 -k IFQ
r -t 0.053236864 -s 1 -d 1 -p cbr -e 1520 -c 2 -a 0 -i 29 -k MAC
+ -t 0.053246864 -s 1 -d -1 -p ACK -e 38 -c 2 -a 0 -i 0 -k MAC 
- -t 0.053246864 -s 1 -d -1 -p ACK -e 38 -c 2 -a 0 -i 0 -k MAC
h -t 0.053246864 -s 1 -d -1 -p ACK -e 38 -c 2 -a 0 -i 0 -k MAC
d -t 0.053425000 -s 0 -d 1 -p cbr -e 1520 -c 2 -a 0 -i 89 -k IFQ
r -t 0.053551364 -s 0 -d -1 -p ACK -e 38 -c 2 -a 0 -i 0 -k MAC
+ -t 0.053901364 -s 0 -d 1 -p cbr -e 1578 -c 2 -a 0 -i 30 -k MAC 
- -t 0.053901364 -s 0 -d 1 -p cbr -e 1578 -c 2 -a 0 -i 30 -k MAC
h -t 0.053901364 -s 0 -d 1 -p cbr -e 1578 -c 2 -a 0 -i 30 -k MAC
d -t 0.054025000 -s 0 -d 1 -p cbr -e 1520 -c 2 -a 0 -i 90 -k IFQ
d -t 0.054625000 -s 0 -d 1 -p cbr -e 1520 -c 2 -a 0 -i 91 -k IFQ
r -t 0.055224045 -s 1 -d 1 -p cbr -e 1520 -c 2 -a 0 -i 30 -k MAC
d -t 0.055225000 -s 0 -d 1 -p cbr -e 1520 -c 2 -a 0 -i 92 -k IFQ
+ -t 0.055234045 -s 1 -d -1 -p ACK -e 38 -c 2 -a 0 -i 0 -k MAC 
- -t 0.055234045 -s 1 -d -1 -p ACK -e 38 -c 2 -a 0 -i 0 -k MAC
h -t 0.055234045 -s 1 -d -1 -p ACK -e 38 -c 2 -a 0 -i 0 -k MAC
r -t 0.055538545 -s 0 -d -1 -p ACK -e 38 -c 2 -a 0 -i 0 -k MAC
+ -t 0.055948545 -s 0 -d 1 -p cbr -e 1578 -c 2 -a 0 -i 31 -k MAC 
- -t 0.055948545 -s 0 -d 1 -p cbr -e 1578 -c 2 -a 0 -i 31 -k MAC
h -t 0.055948545 -s 0 -d 1 -p cbr -e 1578 -c 2 -a 0 -i 31 -k MAC
d -t 0.056425000 -s 0 -d 1 -p cbr -e 1520 -c 2 -a 0 -i 94 -k IFQ
d -t 0.057025000 -s 0 -d 1 -p cbr -e 1520 -c 2 -a 0 -i 95 -k IFQ
r -t 0.057271227 -s 1 -d 1 -p cbr -e 1520 -c 2 -a 0 -i 31 -k MAC
+ -t 0.057281227 -s 1 -d -1 -p ACK -e 38 -c 2 -a 0 -i 0 -k MAC 
- -t 0.057281227 -s 1 -d -1 -p ACK -e 38 -c 2 -a 0 -i 0 -k MAC
h -t 0.057281227 -s 1 -d -1 -p ACK -e 38 -c 2 -a 0 -i 0 -k MAC
r -t 0.057585727 -s 0 -d -1 -p ACK -e 38 -c 2 -a 0 -i 0 -k MAC
+ -t 0.057775727 -s 0 -d 1 -p cbr -e 1578 -c 2 -a 0 -i 33 -k MAC 
- -t 0.057775727 -s 0 -d 1 -p cbr -e 1578 -c 2 -a 0 -i 33 -k MAC
h -t 0.057775727 -s 0 -d 1 -p cbr -e 1578 -c 2 -a 0 -i 33 -k MAC
d -t 0.058225000 -s 0 -d 1 -p cbr -e 1520 -c 2 -a 0 -i 97 -k IFQ
d -t 0.058825000 -s 0 -d 1 -p cbr -e 1520 -c 2 -a 0 -i 98 -k IFQ
r -t 0.059098409 -s 1 -d 1 -p cbr -e 1520 -c 2 -a 0 -i 33 -k MAC
+ -t 0.059108409 -s 1 -d -1 -p ACK -e 38 -c 2 -a 0 -i 0 -k MAC 
- -t 0.059108409 -s 1 -d -1 -p ACK -e 38 -c 2 -a 0 -i 0 -k MAC
h -t 0.059108409 -s 1 -d -1 -p ACK -e 38 -c 2 -a 0 -i 0 -k MAC
r -t 0.059412909 -s 0 -d -1 -p ACK -e 38 -c 2 -a 0 -i 0 -k MAC
+ -t 0.059542909 -s 0 -d 1 -p cbr -e 1578 -c 2 -a 0 -i 37 -k MAC 
- -t 0.059542909 -s 0 -d 1 -p cbr -e 1578 -c 2 -a 0 -i 37 -k MAC
h -t 0.059542909 -s 0 -d 1 -p cbr -e 1578 -c 2 -a 0 -i 37 -k MAC
d -t 0.060025000 -s 0 -d 1 -p cbr -e 1520 -c 2 -a 0 -i 100 -k IFQ
d -t 0.060625000 -s 0 -d 1 -p cbr -e 1520 -c 2 -a 0 -i 101 -k IFQ
r -t 0.060865591 -s 1 -d 1 -p cbr -e 1520 -c 2 -a 0 -i 37 -k MAC
+ -t 0.060875591 -s 1 -d -1 -p ACK -e 38 -c 2 -a 0 -i 0 -k MAC 
- -t 0.060875591 -s 1 -d -1 -p ACK -e 38 -c 2 -a 0 -i 0 -k MAC
h -t 0.060875591 -s 1 -d -1 -p ACK -e 38 -c 2 -a 0 -i 0 -k MAC
r -t 0.061180091 -s 0 -d -1 -p ACK -e 38 -c 2 -a 0 -i 0 -k MAC
+ -t 0.061510091 -s 0 -d 1 -p cbr -e 1578 -c 2 -a 0 -i 2 -k MAC 
- -t 0.061510091 -s 0 -d 1 -p cbr -e 1578 -c 2 -a 0 -i 2 -k MAC
h -t 0.061510091 -s 0 -d 1 -p cbr -e 1578 -c 2 -a 0 -i 2 -k MAC
d -t 0.061825000 -s 0 -d 1 -p cbr -e 1520 -c 2 -a 0 -i 103 -k IFQ
d -t 0.062425000 -s 0 -d 1 -p cbr -e 1520 -c 2 -a 0 -i 104 -k IFQ
r -t 0.062832773 -s 1 -d 1 -p cbr -e 1520 -c 2 -a 0 -i 2 -k MAC
+ -t 0.062842773 -s 1 -d -1 -p ACK -e 38 -c 2 -a 0 -i 0 -k MAC 
- -t 0.062842773 -s 1 -d -1 -p ACK -e 38 -c 2 -a 0 -i 0 -k MAC
h -t 0.062842773 -s 1 -d -1 -p ACK -e 38 -c 2 -a 0 -i 0 -k MAC
d -t 0.063025000 -s 0 -d 1 -p cbr -e 1520 -c 2 -a 0 -i 105 -k IFQ
r -t 0.063147273 -s 0 -d -1 -p ACK -e 38 -c 2 -a 0 -i 0 -k MAC
+ -t 0.063397273 -s 0 -d 1 -p cbr -e 1578 -c 2 -a 0 -i 43 -k MAC 
- -t 0.063397273 -s 0 -d 1 -p cbr -e 1578 -c 2 -a 0 -i 43 -k MAC
h -t 0.063397273 -s 0 -d 1 -p cbr -e 1578 -c 2 -a 0 -i 43 -k MAC
d -t 0.063987818 -s 0 -d 1 -p cbr -e 1520 -c 2 -a 0 -i 6 -k IFQ
d -t 0.064225000 -s 0 -d 1 -p cbr -e 1520 -c 2 -a 0 -i 107 -k IFQ
r -t 0.064719955 -s 1 -d 1 -p cbr -e 1520 -c 2 -a 0 -i 43 -k MAC
+ -t 0.064729955 -s 1 -d -1 -p ACK -e 38 -c 2 -a 0 -i 0 -k MAC 
- -t 0.064729955 -s 1 -d -1 -p ACK -e 38 -c 2 -a 0 -i 0 -k MAC
h -t 0.064729955 -s 1 -d -1 -p ACK -e 38 -c 2 -a 0 -i 0 -k MAC
d -t 0.064825000 -s 0 -d 1 -p cbr -e 1520 -c 2 -a 0 -i 108 -k IFQ
r -t 0.065034455 -s 0 -d -1 -p ACK -e 38 -c 2 -a 0 -i 0 -k MAC
+ -t 0.065184455 -s 0 -d 1 -p cbr -e 1578 -c 2 -a 0 -i 47 -k MAC 
- -t 0.065184455 -s 0 -d 1 -p cbr -e 1578 -c 2 -a 0 -i 47 -k MAC
h -t 0.065184455 -s 0 -d 1 -p cbr -e 1578 -c 2 -a 0 -i 47 -k MAC
d -t 0.066025000 -s 0 -d 1 -p cbr -e 1520 -c 2 -a 0 -i 110 -k IFQ
r -t 0.066507136 -s 1 -d 1 -p cbr -e 1520 -c 2 -a 0 -i 47 -k MAC
+ -t 0.066517136 -s 1 -d -1 -p ACK -e 38 -c 2 -a 0 -i 0 -k MAC 
- -t 0.066517136 -s 1 -d -1 -p ACK -e 38 -c 2 -a 0 -i 0 -k MAC
h -t 0.066517136 -s 1 -d -1 -p ACK -e 38 -c 2 -a 0 -i 0 -k MAC
d -t 0.066625000 -s 0 -d 1 -p cbr -e 1520 -c 2 -a 0 -i 111 -k IFQ
r -t 0.066821636 -s 0 -d -1 -p ACK -e 38 -c 2 -a 0 -i 0 -k MAC
+ -t 0.067391636 -s 0 -d 1 -p cbr -e 1578 -c 2 -a 0 -i 50 -k MAC 
- -t 0.067391636 -s 0 -d 1 -p cbr -e 1578 -c 2 -a 0 -i 50 -k MAC
h -t 0.067391636 -s 0 -d 1 -p cbr -e 1578 -c 2 -a 0 -i 50 -k MAC
d -t 0.067825000 -s 0 -d 1 -p cbr -e 1520 -c 2 -a 0 -i 113 -k IFQ
d -t 0.068425000 -s 0 -d 1 -p cbr -e 1520 -c 2 -a 0 -i 114 -k IFQ
r -t 0.068714318 -s 1 -d 1 -p cbr -e 1520 -c 2 -a 0 -i 50 -k MAC
+ -t 0.068724318 -s 1 -d -1 -p ACK -e 38 -c 2 -a 0 -i 0 -k MAC 
- -t 0.068724318 -s 1 -d -1 -p ACK -e 38 -c 2 -a 0 -i 0 -k MAC
h -t 0.068724318 -s 1 -d -1 -p ACK -e 38 -c 2 -a 0 -i 0 -k MAC
d -t 0.069025000 -s 0 -d 1 -p cbr -e 1520 -c 2 -a 0 -i 115 -k IFQ
r -t 0.069028818 -s 0 -d -1 -p ACK -e 38 -c 2 -a 0 -i 0 -k MAC
+ -t 0.069298818 -s 0 -d 1 -p cbr -e 1578 -c 2 -a 0 -i 53 -k MAC 
- -t 0.069298818 -s 0 -d 1 -p cbr -e 1578 -c 2 -a 0 -i 53 -k MAC
h -t 0.069298818 -s 0 -d 1 -p cbr -e 1578 -c 2 -a 0 -i 53 -k MAC
d -t 0.070225000 -s 0 -d 1 -p cbr -e 1520 -c 2 -a 0 -i 117 -k IFQ
r -t 0.070621500 -s 1 -d 1 -p cbr -e 1520 -c 2 -a 0 -i 53 -k MAC
+ -t 0.070631500 -s 1 -d -1 -p ACK -e 38 -c 2 -a 0 -i 0 -k MAC 
- -t 0.070631500 -s 1 -d -1 -p ACK -e 38 -c 2 -a 0 -i 0 -k MAC
h -t 0.070631500 -s 1 -d -1 -p ACK -e 38 -c 2 -a 0 -i 0 -k MAC
d -t 0.070825000 -s 0 -d 1 -p cbr -e 1520 -c 2 -a 0 -i 118 -k IFQ
r -t 0.070936000 -s 0 -d -1 -p ACK -e 38 -c 2 -a 0 -i 0 -k MAC
+ -t 0.071186000 -s 0 -d 1 -p cbr -e 1578 -c 2 -a 0 -i 3 -k MAC 
- -t 0.071186000 -s 0 -d 1 -p cbr -e 1578 -c 2 -a 0 -i 3 -k MAC
h -t 0.071186000 -s 0 -d 1 -p cbr -e 1578 -c 2 -a 0 -i 3 -k MAC
d -t 0.072025000 -s 0 -d 1 -p cbr -e 1520 -c 2 -a 0 -i 120 -k IFQ
r -t 0.072508682 -s 1 -d 1 -p cbr -e 1520 -c 2 -a 0 -i 3 -k MAC
+ -t 0.072518682 -s 1 -d -1 -p ACK -e 38 -c 2 -a 0 -i 0 -k MAC 
- -t 0.072518682 -s 1 -d -1 -p ACK -e 38 -c 2 -a 0 -i 0 -k MAC
h -t 0.072518682 -s 1 -d -1 -p ACK -e 38 -c 2 -a 0 -i 0 -k MAC
d -t 0.072625000 -s 0 -d 1 -p cbr -e 1520 -c 2 -a 0 -i 121 -k IFQ
r -t 0.072823182 -s 0 -d -1 -p ACK -e 38 -c 2 -a 0 -i 0 -k MAC
+ -t 0.073453182 -s 0 -d 1 -p cbr -e 1578 -c 2 -a 0 -i 60 -k MAC 
- -t 0.073453182 -s 0 -d 1 -p cbr -e 1578 -c 2 -a 0 -i 60 -k MAC
h -t 0.073453182 -s 0 -d 1 -p cbr -e 1578 -c 2 -a 0 -i 60 -k MAC
d -t 0.073825000 -s 0 -d 1 -p cbr -e 1520 -c 2 -a 0 -i 123 -k IFQ
d -t 0.074425000 -s 0 -d 1 -p cbr -e 1520 -c 2 -a 0 -i 124 -k IFQ
r -t 0.074775864 -s 1 -d 1 -p cbr -e 1520 -c 2 -a 0 -i 60 -k MAC
+ -t 0.074785864 -s 1 -d -1 -p ACK -e 38 -c 2 -a 0 -i 0 -k MAC 
- -t 0.074785864 -s 1 -d -1 -p ACK -e 38 -c 2 -a 0 -i 0 -k MAC
h -t 0.074785864 -s 1 -d -1 -p ACK -e 38 -c 2 -a 0 -i 0 -k MAC
d -t 0.075025000 -s 0 -d 1 -p cbr -e 1520 -c 2 -a 0 -i 125 -k IFQ
r -t 0.075090364 -s 0 -d -1 -p ACK -e 38 -c 2 -a 0 -i 0 -k MAC
+ -t 0.075200364 -s 0 -d 1 -p cbr -e 1578 -c 2 -a 0 -i 63 -k MAC 
- -t 0.075200364 -s 0 -d 1 -p cbr -e 1578 -c 2 -a 0 -i 63 -k MAC
h -t 0.075200364 -s 0 -d 1 -p cbr -e 1578 -c 2 -a 0 -i 63 -k MAC
d -t 0.076225000 -s 0 -d 1 -p cbr -e 1520 -c 2 -a 0 -i 127 -k IFQ
r -t 0.076523045 -s 1 -d 1 -p cbr -e 1520 -c 2 -a 0 -i 63 -k MAC
+ -t 0.076533045 -s 1 -d -1 -p ACK -e 38 -c 2 -a 0 -i 0 -k MAC 
- -t 0.076533045 -s 1 -d -1 -p ACK -e 38 -c 2 -a 0 -i 0 -k MAC
h -t 0.076533045 -s 1 -d -1 -p ACK -e 38 -c 2 -a 0 -i 0 -k MAC
d -t 0.076825000 -s 0 -d 1 -p cbr -e 1520 -c 2 -a 0 -i 128 -k IFQ
r -t 0.076837545 -s 0 -d -1 -p ACK -e 38 -c 2 -a 0 -i 0 -k MAC
+ -t 0.077007545 -s 0 -d 1 -p cbr -e 1578 -c 2 -a 0 -i 66 -k MAC 
- -t 0.077007545 -s 0 -d 1 -p cbr -e 1578 -c 2 -a 0 -i 66 -k MAC
h -t 0.077007545 -s 0 -d 1 -p cbr -e 1578 -c 2 -a 0 -i 66 -k MAC
d -t 0.078025000 -s 0 -d 1 -p cbr -e 1520 -c 2 -a 0 -i 130 -k IFQ
r -t 0.078330227 -s 1 -d 1 -p cbr -e 1520 -c 2 -a 0 -i 66 -k MAC
+ -t 0.078340227 -s 1 -d -1 -p ACK -e 38 -c 2 -a 0 -i 0 -k MAC 
- -t 0.078340227 -s 1 -d -1 -p ACK -e 38 -c 2 -a 0 -i 0 -k MAC
h -t 0.078340227 -s 1 -d -1 -p ACK -e 38 -c 2 -a 0 -i 0 -k MAC
d -t 0.078625000 -s 0 -d 1 -p cbr -e 1520 -c 2 -a 0 -i 131 -k IFQ
r -t 0.078644727 -s 0 -d -1 -p ACK -e 38 -c 2 -a 0 -i 0 -k MAC
+ -t 0.079034727 -s 0 -d 1 -p cbr -e 1578 -c 2 -a 0 -i 69 -k MAC 
- -t 0.079034727 -s 0 -d 1 -p cbr -e 1578 -c 2 -a 0 -i 69 -k MAC
h -t 0.079034727 -s 0 -d 1 -p cbr -e 1578 -c 2 -a 0 -i 69 -k MAC
d -t 0.079825000 -s 0 -d 1 -p cbr -e 1520 -c 2 -a 0 -i 133 -k IFQ
r -t 0.080357409 -s 1 -d 1 -p cbr -e 1520 -c 2 -a 0 -i 69 -k MAC
+ -t 0.080367409 -s 1 -d -1 -p ACK -e 38 -c 2 -a 0 -i 0 -k MAC 
- -t 0.080367409 -s 1 -d -1 -p ACK -e 38 -c 2 -a 0 -i 0 -k MAC
h -t 0.080367409 -s 1 -d -1 -p ACK -e 38 -c 2 -a 0 -i 0 -k MAC
d -t 0.080425000 -s 0 -d 1 -p cbr -e 1520 -c 2 -a 0 -i 134 -k IFQ
r -t 0.080671909 -s 0 -d -1 -p ACK -e 38 -c 2 -a 0 -i 0 -k MAC
+ -t 0.081221909 -s 0 -d 1 -p cbr -e 1578 -c 2 -a 0 -i 72 -k MAC 
- -t 0.081221909 -s 0 -d 1 -p cbr -e 1578 -c 2 -a 0 -i 72 -k MAC
h -t 0.081221909 -s 0 -d 1 -p cbr -e 1578 -c 2 -a 0 -i 72 -k MAC
d -t 0.081625000 -s 0 -d 1 -p cbr -e 1520 -c 2 -a 0 -i 136 -k IFQ
d -t 0.082225000 -s 0 -d 1 -p cbr -e 1520 -c 2 -a 0 -i 137 -k IFQ
r -t 0.082544591 -s 1 -d 1 -p cbr -e 1520 -c 2 -a 0 -i 72 -k MAC
+ -t 0.082554591 -s 1 -d -1 -p ACK -e 38 -c 2 -a 0 -i 0 -k MAC 
- -t 0.082554591 -s 1 -d -1 -p ACK -e 38 -c 2 -a 0 -i 0 -k MAC
h -t 0.082554591 -s 1 -d -1 -p ACK -e 38 -c 2 -a 0 -i 0 -k MAC
d -t 0.082825000 -s 0 -d 1 -p cbr -e 1520 -c 2 -a 0 -i 138 -k IFQ
r -t 0.082859091 -s 0 -d -1 -p ACK -e 38 -c 2 -a 0 -i 0 -k MAC
+ -t 0.083189091 -s 0 -d 1 -p cbr -e 1578 -c 2 -a 0 -i 76 -k MAC 
- -t 0.083189091 -s 0 -d 1 -p cbr -e 1578 -c 2 -a 0 -i 76 -k MAC
h -t 0.083189091 -s 0 -d 1 -p cbr -e 1578 -c 2 -a 0 -i 76 -k MAC
d -t 0.084025000 -s 0 -d 1 -p cbr -e 1520 -c 2 -a 0 -i 140 -k IFQ
r -t 0.084511773 -s 1 -d 1 -p cbr -e 1520 -c 2 -a 0 -i 76 -k MAC
+ -t 0.084521773 -s 1 -d -1 -p ACK -e 38 -c 2 -a 0 -i 0 -k MAC 
- -t 0.084521773 -s 1 -d -1 -p ACK -e 38 -c 2 -a 0 -i 0 -k MAC
h -t 0.084521773 -s 1 -d -1 -p ACK -e 38 -c 2 -a 0 -i 0 -k MAC
d -t 0.084625000 -s 0 -d 1 -p cbr -e 1520 -c 2 -a 0 -i 141 -k IFQ
r -t 0.084826273 -s 0 -d -1 -p ACK -e 38 -c 2 -a 0 -i 0 -k MAC
+ -t 0.085056273 -s 0 -d 1 -p cbr -e 1578 -c 2 -a 0 -i 80 -k MAC 
- -t 0.085056273 -s 0 -d 1 -p cbr -e 1578 -c 2 -a 0 -i 80 -k MAC
h -t 0.085056273 -s 0 -d 1 -p cbr -e 1578 -c 2 -a 0 -i 80 -k MAC
d -t 0.085825000 -s 0 -d 1 -p cbr -e 1520 -c 2 -a 0 -i 143 -k IFQ
r -t 0.086378955 -s 1 -d 1 -p cbr -e 1520 -c 2 -a 0 -i 80 -k MAC
+ -t 0.086388955 -s 1 -d -1 -p ACK -e 38 -c 2 -a 0 -i 0 -k MAC 
- -t 0.086388955 -s 1 -d -1 -p ACK -e 38 -c 2 -a 0 -i 0 -k MAC
h -t 0.086388955 -s 1 -d -1 -p ACK -e 38 -c 2 -a 0 -i 0 -k MAC
d -t 0.086425000 -s 0 -d 1 -p cbr -e 1520 -c 2 -a 0 -i 144 -k IFQ
r -t 0.086693455 -s 0 -d -1 -p ACK -e 38 -c 2 -a 0 -i 0 -k MAC
+ -t 0.087023455 -s 0 -d 1 -p cbr -e 1578 -c 2 -a 0 -i 83 -k MAC 
- -t 0.087023455 -s 0 -d 1 -p cbr -e 1578 -c 2 -a 0 -i 83 -k MAC
h -t 0.087023455 -s 0 -d 1 -p cbr -e 1578 -c 2 -a 0 -i 83 -k MAC
d -t 0.087625000 -s 0 -d 1 -p cbr -e 1520 -c 2 -a 0 -i 146 -k IFQ
d -t 0.088225000 -s 0 -d 1 -p cbr -e 1520 -c 2 -a 0 -i 147 -k IFQ
r -t 0.088346136 -s 1 -d 1 -p cbr -e 1520 -c 2 -a 0 -i 83 -k MAC
+ -t 0.088356136 -s 1 -d -1 -p ACK -e 38 -c 2 -a 0 -i 0 -k MAC 
- -t 0.088356136 -s 1 -d -1 -p ACK -e 38 -c 2 -a 0 -i 0 -k MAC
h -t 0.088356136 -s 1 -d -1 -p ACK -e 38 -c 2 -a 0 -i 0 -k MAC
r -t 0.088660636 -s 0 -d -1 -p ACK -e 38 -c 2 -a 0 -i 0 -k MAC
+ -t 0.089190636 -s 0 -d 1 -p cbr -e 1578 -c 2 -a 0 -i 87 -k MAC 
- -t 0.089190636 -s 0 -d 1 -p cbr -e 1578 -c 2 -a 0 -i 87 -k MAC
h -t 0.089190636 -s 0 -d 1 -p cbr -e 1578 -c 2 -a 0 -i 87 -k MAC
d -t 0.089425000 -s 0 -d 1 -p cbr -e 1520 -c 2 -a 0 -i 149 -k IFQ
d -t 0.090025000 -s 0 -d 1 -p cbr -e 1520 -c 2 -a 0 -i 150 -k IFQ
r -t 0.090513318 -s 1 -d 1 -p cbr -e 1520 -c 2 -a 0 -i 87 -k MAC
+ -t 0.090523318 -s 1 -d -1 -p ACK -e 38 -c 2 -a 0 -i 0 -k MAC 
- -t 0.090523318 -s 1 -d -1 -p ACK -e 38 -c 2 -a 0 -i 0 -k MAC