V -t * -v 1.0a5 -a 0
A -t * -n 1 -p 0 -o 0x7fffffff -c 30 -a 1
A -t * -h 1 -m 1073741823 -s 0
c -t * -i 1 -n green
c -t * -i 2 -n red
c -t * -i 3 -n blue
n -t * -a 0 -s 0 -S UP -v circle -c black -i black
n -t * -a 1 -s 1 -S UP -v circle -c black -i black
n -t * -a 2 -s 2 -S UP -v circle -c black -i black
n -t * -a 3 -s 3 -S UP -v circle -c black -i black
l -t * -s 0 -d 2 -S UP -r 2000000 -D 0.01 -c black
l -t * -s 1 -d 2 -S UP -r 2000000 -D 0.01 -c black
l -t * -s 2 -d 3 -S UP -r 1500000 -D 0.02 -c black
+ -t 1 -s 1 -d 2 -p cbr -e 1000 -c 3 -i 0 -a 3 -x {1.0 3.0 0 ------- null}
- -t 1 -s 1 -d 2 -p cbr -e 1000 -c 3 -i 0 -a 3 -x {1.0 3.0 0 ------- null}
h -t 1 -s 1 -d 2 -p cbr -e 1000 -c 3 -i 0 -a 3 -x {1.0 3.0 -1 ------- null}
+ -t 1.005 -s 1 -d 2 -p cbr -e 1000 -c 3 -i 1 -a 3 -x {1.0 3.0 1 ------- null}
- -t 1.005 -s 1 -d 2 -p cbr -e 1000 -c 3 -i 1 -a 3 -x {1.0 3.0 1 ------- null}
h -t 1.005 -s 1 -d 2 -p cbr -e 1000 -c 3 -i 1 -a 3 -x {1.0 3.0 -1 ------- null}
+ -t 1.01 -s 1 -d 2 -p cbr -e 1000 -c 3 -i 2 -a 3 -x {1.0 3.0 2 ------- null}
- -t 1.01 -s 1 -d 2 -p cbr -e 1000 -c 3 -i 2 -a 3 -x {1.0 3.0 2 ------- null}
h -t 1.01 -s 1 -d 2 -p cbr -e 1000 -c 3 -i 2 -a 3 -x {1.0 3.0 -1 ------- null}
r -t 1.014 -s 1 -d 2 -p cbr -e 1000 -c 3 -i 0 -a 3 -x {1.0 3.0 0 ------- null}
+ -t 1.014 -s 2 -d 3 -p cbr -e 1000 -c 3 -i 0 -a 3 -x {1.0 3.0 0 ------- null}
- -t 1.014 -s 2 -d 3 -p cbr -e 1000 -c 3 -i 0 -a 3 -x {1.0 3.0 0 ------- null}
h -t 1.014 -s 2 -d 3 -p cbr -e 1000 -c 3 -i 0 -a 3 -x {1.0 3.0 -1 ------- null}
+ -t 1.015 -s 1 -d 2 -p cbr -e 1000 -c 3 -i 3 -a 3 -x {1.0 3.0 3 ------- null}
- -t 1.015 -s 1 -d 2 -p cbr -e 1000 -c 3 -i 3 -a 3 -x {1.0 3.0 3 ------- null}
h -t 1.015 -s 1 -d 2 -p cbr -e 1000 -c 3 -i 3 -a 3 -x {1.0 3.0 -1 ------- null}
r -t 1.019 -s 1 -d 2 -p cbr -e 1000 -c 3 -i 1 -a 3 -x {1.0 3.0 1 ------- null}
+ -t 1.019 -s 2 -d 3 -p cbr -e 1000 -c 3 -i 1 -a 3 -x {1.0 3.0 1 ------- null}
- -t 1.01933333333333 -s 2 -d 3 -p cbr -e 1000 -c 3 -i 1 -a 3 -x {1.0 3.0 1 ------- null}
h -t 1.01933333333333 -s 2 -d 3 -p cbr -e 1000 -c 3 -i 1 -a 3 -x {1.0 3.0 -1 ------- null}
+ -t 1.02 -s 1 -d 2 -p cbr -e 1000 -c 3 -i 4 -a 3 -x {1.0 3.0 4 ------- null}
- -t 1.02 -s 1 -d 2 -p cbr -e 1000 -c 3 -i 4 -a 3 -x {1.0 3.0 4 ------- null}
h -t 1.02 -s 1 -d 2 -p cbr -e 1000 -c 3 -i 4 -a 3 -x {1.0 3.0 -1 ------- null}
r -t 1.024 -s 1 -d 2 -p cbr -e 1000 -c 3 -i 2 -a 3 -x {1.0 3.0 2 ------- null}
+ -t 1.024 -s 2 -d 3 -p cbr -e 1000 -c 3 -i 2 -a 3 -x {1.0 3.0 2 ------- null}
- -t 1.02466666666667 -s 2 -d 3 -p cbr -e 1000 -c 3 -i 2 -a 3 -x {1.0 3.0 2 ------- null}
h -t 1.02466666666667 -s 2 -d 3 -p cbr -e 1000 -c 3 -i 2 -a 3 -x {1.0 3.0 -1 ------- null}
+ -t 1.025 -s 1 -d 2 -p cbr -e 1000 -c 3 -i 5 -a 3 -x {1.0 3.0 5 ------- null}
- -t 1.025 -s 1 -d 2 -p cbr -e 1000 -c 3 -i 5 -a 3 -x {1.0 3.0 5 ------- null}
h -t 1.025 -s 1 -d 2 -p cbr -e 1000 -c 3 -i 5 -a 3 -x {1.0 3.0 -1 ------- null}
r -t 1.029 -s 1 -d 2 -p cbr -e 1000 -c 3 -i 3 -a 3 -x {1.0 3.0 3 ------- null}
+ -t 1.029 -s 2 -d 3 -p cbr -e 1000 -c 3 -i 3 -a 3 -x {1.0 3.0 3 ------- null}
+ -t 1.03 -s 1 -d 2 -p cbr -e 1000 -c 3 -i 6 -a 3 -x {1.0 3.0 6 ------- null}
- -t 1.03 -s 1 -d 2 -p cbr -e 1000 -c 3 -i 6 -a 3 -x {1.0 3.0 6 ------- null}
h -t 1.03 -s 1 -d 2 -p cbr -e 1000 -c 3 -i 6 -a 3 -x {1.0 3.0 -1 ------- null}
- -t 1.03 -s 2 -d 3 -p cbr -e 1000 -c 3 -i 3 -a 3 -x {1.0 3.0 3 ------- null}
h -t 1.03 -s 2 -d 3 -p cbr -e 1000 -c 3 -i 3 -a 3 -x {1.0 3.0 -1 ------- null}
r -t 1.034 -s 1 -d 2 -p cbr -e 1000 -c 3 -i 4 -a 3 -x {1.0 3.0 4 ------- null}
+ -t 1.034 -s 2 -d 3 -p cbr -e 1000 -c 3 -i 4 -a 3 -x {1.0 3.0 4 ------- null}
+ -t 1.035 -s 1 -d 2 -p cbr -e 1000 -c 3 -i 7 -a 3 -x {1.0 3.0 7 ------- null}
- -t 1.035 -s 1 -d 2 -p cbr -e 1000 -c 3 -i 7 -a 3 -x {1.0 3.0 7 ------- null}
h -t 1.035 -s 1 -d 2 -p cbr -e 1000 -c 3 -i 7 -a 3 -x {1.0 3.0 -1 ------- null}
- -t 1.03533333333333 -s 2 -d 3 -p cbr -e 1000 -c 3 -i 4 -a 3 -x {1.0 3.0 4 ------- null}
h -t 1.03533333333333 -s 2 -d 3 -p cbr -e 1000 -c 3 -i 4 -a 3 -x {1.0 3.0 -1 ------- null}
r -t 1.039 -s 1 -d 2 -p cbr -e 1000 -c 3 -i 5 -a 3 -x {1.0 3.0 5 ------- null}
+ -t 1.039 -s 2 -d 3 -p cbr -e 1000 -c 3 -i 5 -a 3 -x {1.0 3.0 5 ------- null}
r -t 1.03933333333333 -s 2 -d 3 -p cbr -e 1000 -c 3 -i 0 -a 3 -x {1.0 3.0 0 ------- null}
+ -t 1.04 -s 1 -d 2 -p cbr -e 1000 -c 3 -i 8 -a 3 -x {1.0 3.0 8 ------- null}
- -t 1.04 -s 1 -d 2 -p cbr -e 1000 -c 3 -i 8 -a 3 -x {1.0 3.0 8 ------- null}
h -t 1.04 -s 1 -d 2 -p cbr -e 1000 -c 3 -i 8 -a 3 -x {1.0 3.0 -1 ------- null}
- -t 1.04066666666667 -s 2 -d 3 -p cbr -e 1000 -c 3 -i 5 -a 3 -x {1.0 3.0 5 ------- null}
h -t 1.04066666666667 -s 2 -d 3 -p cbr -e 1000 -c 3 -i 5 -a 3 -x {1.0 3.0 -1 ------- null}
r -t 1.044 -s 1 -d 2 -p cbr -e 1000 -c 3 -i 6 -a 3 -x {1.0 3.0 6 ------- null}
+ -t 1.044 -s 2 -d 3 -p cbr -e 1000 -c 3 -i 6 -a 3 -x {1.0 3.0 6 ------- null}
r -t 1.04466666666667 -s 2 -d 3 -p cbr -e 1000 -c 3 -i 1 -a 3 -x {1.0 3.0 1 ------- null}
+ -t 1.045 -s 1 -d 2 -p cbr -e 1000 -c 3 -i 9 -a 3 -x {1.0 3.0 9 ------- null}
- -t 1.045 -s 1 -d 2 -p cbr -e 1000 -c 3 -i 9 -a 3 -x {1.0 3.0 9 ------- null}
h -t 1.045 -s 1 -d 2 -p cbr -e 1000 -c 3 -i 9 -a 3 -x {1.0 3.0 -1 ------- null}
- -t 1.046 -s 2 -d 3 -p cbr -e 1000 -c 3 -i 6 -a 3 -x {1.0 3.0 6 ------- null}
h -t 1.046 -s 2 -d 3 -p cbr -e 1000 -c 3 -i 6 -a 3 -x {1.0 3.0 -1 ------- null}
r -t 1.049 -s 1 -d 2 -p cbr -e 1000 -c 3 -i 7 -a 3 -x {1.0 3.0 7 ------- null}
+ -t 1.049 -s 2 -d 3 -p cbr -e 1000 -c 3 -i 7 -a 3 -x {1.0 3.0 7 ------- null}
+ -t 1.05 -s 1 -d 2 -p cbr -e 1000 -c 3 -i 10 -a 3 -x {1.0 3.0 10 ------- null}
- -t 1.05 -s 1 -d 2 -p cbr -e 1000 -c 3 -i 10 -a 3 -x {1.0 3.0 10 ------- null}
h -t 1.05 -s 1 -d 2 -p cbr -e 1000 -c 3 -i 10 -a 3 -x {1.0 3.0 -1 ------- null}
r -t 1.05 -s 2 -d 3 -p cbr -e 1000 -c 3 -i 2 -a 3 -x {1.0 3.0 2 ------- null}
- -t 1.05133333333333 -s 2 -d 3 -p cbr -e 1000 -c 3 -i 7 -a 3 -x {1.0 3.0 7 ------- null}
h -t 1.05133333333333 -s 2 -d 3 -p cbr -e 1000 -c 3 -i 7 -a 3 -x {1.0 3.0 -1 ------- null}
r -t 1.054 -s 1 -d 2 -p cbr -e 1000 -c 3 -i 8 -a 3 -x {1.0 3.0 8 ------- null}
+ -t 1.054 -s 2 -d 3 -p cbr -e 1000 -c 3 -i 8 -a 3 -x {1.0 3.0 8 ------- null}
+ -t 1.055 -s 1 -d 2 -p cbr -e 1000 -c 3 -i 11 -a 3 -x {1.0 3.0 11 ------- null}
- -t 1.055 -s 1 -d 2 -p cbr -e 1000 -c 3 -i 11 -a 3 -x {1.0 3.0 11 ------- null}
h -t 1.055 -s 1 -d 2 -p cbr -e 1000 -c 3 -i 11 -a 3 -x {1.0 3.0 -1 ------- null}
r -t 1.05533333333333 -s 2 -d 3 -p cbr -e 1000 -c 3 -i 3 -a 3 -x {1.0 3.0 3 ------- null}
- -t 1.05666666666667 -s 2 -d 3 -p cbr -e 1000 -c 3 -i 8 -a 3 -x {1.0 3.0 8 ------- null}
h -t 1.05666666666667 -s 2 -d 3 -p cbr -e 1000 -c 3 -i 8 -a 3 -x {1.0 3.0 -1 ------- null}
r -t 1.059 -s 1 -d 2 -p cbr -e 1000 -c 3 -i 9 -a 3 -x {1.0 3.0 9 ------- null}
+ -t 1.059 -s 2 -d 3 -p cbr -e 1000 -c 3 -i 9 -a 3 -x {1.0 3.0 9 ------- null}
+ -t 1.06 -s 1 -d 2 -p cbr -e 1000 -c 3 -i 12 -a 3 -x {1.0 3.0 12 ------- null}
- -t 1.06 -s 1 -d 2 -p cbr -e 1000 -c 3 -i 12 -a 3 -x {1.0 3.0 12 ------- null}
h -t 1.06 -s 1 -d 2 -p cbr -e 1000 -c 3 -i 12 -a 3 -x {1.0 3.0 -1 ------- null}
r -t 1.06066666666667 -s 2 -d 3 -p cbr -e 1000 -c 3 -i 4 -a 3 -x {1.0 3.0 4 ------- null}
- -t 1.062 -s 2 -d 3 -p cbr -e 1000 -c 3 -i 9 -a 3 -x {1.0 3.0 9 ------- null}
h -t 1.062 -s 2 -d 3 -p cbr -e 1000 -c 3 -i 9 -a 3 -x {1.0 3.0 -1 ------- null}
r -t 1.064 -s 1 -d 2 -p cbr -e 1000 -c 3 -i 10 -a 3 -x {1.0 3.0 10 ------- null}
+ -t 1.064 -s 2 -d 3 -p cbr -e 1000 -c 3 -i 10 -a 3 -x {1.0 3.0 10 ------- null}
+ -t 1.065 -s 1 -d 2 -p cbr -e 1000 -c 3 -i 13 -a 3 -x {1.0 3.0 13 ------- null}
- -t 1.065 -s 1 -d 2 -p cbr -e 1000 -c 3 -i 13 -a 3 -x {1.0 3.0 13 ------- null}
h -t 1.065 -s 1 -d 2 -p cbr -e 1000 -c 3 -i 13 -a 3 -x {1.0 3.0 -1 ------- null}
r -t 1.066 -s 2 -d 3 -p cbr -e 1000 -c 3 -i 5 -a 3 -x {1.0 3.0 5 ------- null}
- -t 1.06733333333333 -s 2 -d 3 -p cbr -e 1000 -c 3 -i 10 -a 3 -x {1.0 3.0 10 ------- null}
h -t 1.06733333333333 -s 2 -d 3 -p cbr -e 1000 -c 3 -i 10 -a 3 -x {1.0 3.0 -1 ------- null}
r -t 1.069 -s 1 -d 2 -p cbr -e 1000 -c 3 -i 11 -a 3 -x {1.0 3.0 11 ------- null}
+ -t 1.069 -s 2 -d 3 -p cbr -e 1000 -c 3 -i 11 -a 3 -x {1.0 3.0 11 ------- null}
+ -t 1.07 -s 1 -d 2 -p cbr -e 1000 -c 3 -i 14 -a 3 -x {1.0 3.0 14 ------- null}
- -t 1.07 -s 1 -d 2 -p cbr -e 1000 -c 3 -i 14 -a 3 -x {1.0 3.0 14 ------- null}
h -t 1.07 -s 1 -d 2 -p cbr -e 1000 -c 3 -i 14 -a 3 -x {1.0 3.0 -1 ------- null}
r -t 1.07133333333333 -s 2 -d 3 -p cbr -e 1000 -c 3 -i 6 -a 3 -x {1.0 3.0 6 ------- null}
- -t 1.07266666666667 -s 2 -d 3 -p cbr -e 1000 -c 3 -i 11 -a 3 -x {1.0 3.0 11 ------- null}
h -t 1.07266666666667 -s 2 -d 3 -p cbr -e 1000 -c 3 -i 11 -a 3 -x {1.0 3.0 -1 ------- null}
r -t 1.074 -s 1 -d 2 -p cbr -e 1000 -c 3 -i 12 -a 3 -x {1.0 3.0 12 ------- null}
+ -t 1.074 -s 2 -d 3 -p cbr -e 1000 -c 3 -i 12 -a 3 -x {1.0 3.0 12 ------- null}
+ -t 1.075 -s 1 -d 2 -p cbr -e 1000 -c 3 -i 15 -a 3 -x {1.0 3.0 15 ------- null}
- -t 1.075 -s 1 -d 2 -p cbr -e 1000 -c 3 -i 15 -a 3 -x {1.0 3.0 15 ------- null}
h -t 1.075 -s 1 -d 2 -p cbr -e 1000 -c 3 -i 15 -a 3 -x {1.0 3.0 -1 ------- null}
r -t 1.07666666666667 -s 2 -d 3 -p cbr -e 1000 -c 3 -i 7 -a 3 -x {1.0 3.0 7 ------- null}
- -t 1.078 -s 2 -d 3 -p cbr -e 1000 -c 3 -i 12 -a 3 -x {1.0 3.0 12 ------- null}
h -t 1.078 -s 2 -d 3 -p cbr -e 1000 -c 3 -i 12 -a 3 -x {1.0 3.0 -1 ------- null}
r -t 1.079 -s 1 -d 2 -p cbr -e 1000 -c 3 -i 13 -a 3 -x {1.0 3.0 13 ------- null}
+ -t 1.079 -s 2 -d 3 -p cbr -e 1000 -c 3 -i 13 -a 3 -x {1.0 3.0 13 ------- null}
+ -t 1.08 -s 1 -d 2 -p cbr -e 1000 -c 3 -i 16 -a 3 -x {1.0 3.0 16 ------- null}
- -t 1.08 -s 1 -d 2 -p cbr -e 1000 -c 3 -i 16 -a 3 -x {1.0 3.0 16 ------- null}
h -t 1.08 -s 1 -d 2 -p cbr -e 1000 -c 3 -i 16 -a 3 -x {1.0 3.0 -1 ------- null}
r -t 1.082 -s 2 -d 3 -p cbr -e 1000 -c 3 -i 8 -a 3 -x {1.0 3.0 8 ------- null}
- -t 1.08333333333333 -s 2 -d 3 -p cbr -e 1000 -c 3 -i 13 -a 3 -x {1.0 3.0 13 ------- null}
h -t 1.08333333333333 -s 2 -d 3 -p cbr -e 1000 -c 3 -i 13 -a 3 -x {1.0 3.0 -1 ------- null}
r -t 1.084 -s 1 -d 2 -p cbr -e 1000 -c 3 -i 14 -a 3 -x {1.0 3.0 14 ------- null}
+ -t 1.084 -s 2 -d 3 -p cbr -e 1000 -c 3 -i 14 -a 3 -x {1.0 3.0 14 ------- null}
+ -t 1.085 -s 1 -d 2 -p cbr -e 1000 -c 3 -i 17 -a 3 -x {1.0 3.0 17 ------- null}
- -t 1.085 -s 1 -d 2 -p cbr -e 1000 -c 3 -i 17 -a 3 -x {1.0 3.0 17 ------- null}
h -t 1.085 -s 1 -d 2 -p cbr -e 1000 -c 3 -i 17 -a 3 -x {1.0 3.0 -1 ------- null}
r -t 1.08733333333333 -s 2 -d 3 -p cbr -e 1000 -c 3 -i 9 -a 3 -x {1.0 3.0 9 ------- null}
- -t 1.08866666666667 -s 2 -d 3 -p cbr -e 1000 -c 3 -i 14 -a 3 -x {1.0 3.0 14 ------- null}
h -t 1.08866666666667 -s 2 -d 3 -p cbr -e 1000 -c 3 -i 14 -a 3 -x {1.0 3.0 -1 ------- null}
r -t 1.089 -s 1 -d 2 -p cbr -e 1000 -c 3 -i 15 -a 3 -x {1.0 3.0 15 ------- null}
+ -t 1.089 -s 2 -d 3 -p cbr -e 1000 -c 3 -i 15 -a 3 -x {1.0 3.0 15 ------- null}
+ -t 1.09 -s 1 -d 2 -p cbr -e 1000 -c 3 -i 18 -a 3 -x {1.0 3.0 18 ------- null}
- -t 1.09 -s 1 -d 2 -p cbr -e 1000 -c 3 -i 18 -a 3 -x {1.0 3.0 18 ------- null}
h -t 1.09 -s 1 -d 2 -p cbr -e 1000 -c 3 -i 18 -a 3 -x {1.0 3.0 -1 ------- null}
r -t 1.09266666666667 -s 2 -d 3 -p cbr -e 1000 -c 3 -i 10 -a 3 -x {1.0 3.0 10 ------- null}
r -t 1.094 -s 1 -d 2 -p cbr -e 1000 -c 3 -i 16 -a 3 -x {1.0 3.0 16 ------- null}
+ -t 1.094 -s 2 -d 3 -p cbr -e 1000 -c 3 -i 16 -a 3 -x {1.0 3.0 16 ------- null}
- -t 1.094 -s 2 -d 3 -p cbr -e 1000 -c 3 -i 15 -a 3 -x {1.0 3.0 15 ------- null}
h -t 1.094 -s 2 -d 3 -p cbr -e 1000 -c 3 -i 15 -a 3 -x {1.0 3.0 -1 ------- null}
+ -t 1.095 -s 1 -d 2 -p cbr -e 1000 -c 3 -i 19 -a 3 -x {1.0 3.0 19 ------- null}
- -t 1.095 -s 1 -d 2 -p cbr -e 1000 -c 3 -i 19 -a 3 -x {1.0 3.0 19 ------- null}
h -t 1.095 -s 1 -d 2 -p cbr -e 1000 -c 3 -i 19 -a 3 -x {1.0 3.0 -1 ------- null}
r -t 1.098 -s 2 -d 3 -p cbr -e 1000 -c 3 -i 11 -a 3 -x {1.0 3.0 11 ------- null}
r -t 1.099 -s 1 -d 2 -p cbr -e 1000 -c 3 -i 17 -a 3 -x {1.0 3.0 17 ------- null}
+ -t 1.099 -s 2 -d 3 -p cbr -e 1000 -c 3 -i 17 -a 3 -x {1.0 3.0 17 ------- null}
- -t 1.09933333333333 -s 2 -d 3 -p cbr -e 1000 -c 3 -i 16 -a 3 -x {1.0 3.0 16 ------- null}
h -t 1.09933333333333 -s 2 -d 3 -p cbr -e 1000 -c 3 -i 16 -a 3 -x {1.0 3.0 -1 ------- null}
+ -t 1.1 -s 1 -d 2 -p cbr -e 1000 -c 3 -i 20 -a 3 -x {1.0 3.0 20 ------- null}
- -t 1.1 -s 1 -d 2 -p cbr -e 1000 -c 3 -i 20 -a 3 -x {1.0 3.0 20 ------- null}
h -t 1.1 -s 1 -d 2 -p cbr -e 1000 -c 3 -i 20 -a 3 -x {1.0 3.0 -1 ------- null}
r -t 1.10333333333333 -s 2 -d 3 -p cbr -e 1000 -c 3 -i 12 -a 3 -x {1.0 3.0 12 ------- null}
r -t 1.104 -s 1 -d 2 -p cbr -e 1000 -c 3 -i 18 -a 3 -x {1.0 3.0 18 ------- null}
+ -t 1.104 -s 2 -d 3 -p cbr -e 1000 -c 3 -i 18 -a 3 -x {1.0 3.0 18 ------- null}
- -t 1.10466666666667 -s 2 -d 3 -p cbr -e 1000 -c 3 -i 17 -a 3 -x {1.0 3.0 17 ------- null}
h -t 1.10466666666667 -s 2 -d 3 -p cbr -e 1000 -c 3 -i 17 -a 3 -x {1.0 3.0 -1 ------- null}
+ -t 1.105 -s 1 -d 2 -p cbr -e 1000 -c 3 -i 21 -a 3 -x {1.0 3.0 21 ------- null}
- -t 1.105 -s 1 -d 2 -p cbr -e 1000 -c 3 -i 21 -a 3 -x {1.0 3.0 21 ------- null}
h -t 1.105 -s 1 -d 2 -p cbr -e 1000 -c 3 -i 21 -a 3 -x {1.0 3.0 -1 ------- null}
r -t 1.10866666666667 -s 2 -d 3 -p cbr -e 1000 -c 3 -i 13 -a 3 -x {1.0 3.0 13 ------- null}
r -t 1.109 -s 1 -d 2 -p cbr -e 1000 -c 3 -i 19 -a 3 -x {1.0 3.0 19 ------- null}
+ -t 1.109 -s 2 -d 3 -p cbr -e 1000 -c 3 -i 19 -a 3 -x {1.0 3.0 19 ------- null}
+ -t 1.11 -s 1 -d 2 -p cbr -e 1000 -c 3 -i 22 -a 3 -x {1.0 3.0 22 ------- null}
- -t 1.11 -s 1 -d 2 -p cbr -e 1000 -c 3 -i 22 -a 3 -x {1.0 3.0 22 ------- null}
h -t 1.11 -s 1 -d 2 -p cbr -e 1000 -c 3 -i 22 -a 3 -x {1.0 3.0 -1 ------- null}
- -t 1.11 -s 2 -d 3 -p cbr -e 1000 -c 3 -i 18 -a 3 -x {1.0 3.0 18 ------- null}
h -t 1.11 -s 2 -d 3 -p cbr -e 1000 -c 3 -i 18 -a 3 -x {1.0 3.0 -1 ------- null}
r -t 1.114 -s 1 -d 2 -p cbr -e 1000 -c 3 -i 20 -a 3 -x {1.0 3.0 20 ------- null}
+ -t 1.114 -s 2 -d 3 -p cbr -e 1000 -c 3 -i 20 -a 3 -x {1.0 3.0 20 ------- null}
r -t 1.114 -s 2 -d 3 -p cbr -e 1000 -c 3 -i 14 -a 3 -x {1.0 3.0 14 ------- null}
+ -t 1.115 -s 1 -d 2 -p cbr -e 1000 -c 3 -i 23 -a 3 -x {1.0 3.0 23 ------- null}
- -t 1.115 -s 1 -d 2 -p cbr -e 1000 -c 3 -i 23 -a 3 -x {1.0 3.0 23 ------- null}
h -t 1.115 -s 1 -d 2 -p cbr -e 1000 -c 3 -i 23 -a 3 -x {1.0 3.0 -1 ------- null}
- -t 1.11533333333333 -s 2 -d 3 -p cbr -e 1000 -c 3 -i 19 -a 3 -x {1.0 3.0 19 ------- null}
h -t 1.11533333333333 -s 2 -d 3 -p cbr -e 1000 -c 3 -i 19 -a 3 -x {1.0 3.0 -1 ------- null}
r -t 1.119 -s 1 -d 2 -p cbr -e 1000 -c 3 -i 21 -a 3 -x {1.0 3.0 21 ------- null}
+ -t 1.119 -s 2 -d 3 -p cbr -e 1000 -c 3 -i 21 -a 3 -x {1.0 3.0 21 ------- null}
r -t 1.11933333333333 -s 2 -d 3 -p cbr -e 1000 -c 3 -i 15 -a 3 -x {1.0 3.0 15 ------- null}
+ -t 1.12 -s 1 -d 2 -p cbr -e 1000 -c 3 -i 24 -a 3 -x {1.0 3.0 24 ------- null}
- -t 1.12 -s 1 -d 2 -p cbr -e 1000 -c 3 -i 24 -a 3 -x {1.0 3.0 24 ------- null}
h -t 1.12 -s 1 -d 2 -p cbr -e 1000 -c 3 -i 24 -a 3 -x {1.0 3.0 -1 ------- null}
- -t 1.12066666666667 -s 2 -d 3 -p cbr -e 1000 -c 3 -i 20 -a 3 -x {1.0 3.0 20 ------- null}
h -t 1.12066666666667 -s 2 -d 3 -p cbr -e 1000 -c 3 -i 20 -a 3 -x {1.0 3.0 -1 ------- null}
r -t 1.124 -s 1 -d 2 -p cbr -e 1000 -c 3 -i 22 -a 3 -x {1.0 3.0 22 ------- null}
+ -t 1.124 -s 2 -d 3 -p cbr -e 1000 -c 3 -i 22 -a 3 -x {1.0 3.0 22 ------- null}
r -t 1.12466666666667 -s 2 -d 3 -p cbr -e 1000 -c 3 -i 16 -a 3 -x {1.0 3.0 16 ------- null}
+ -t 1.125 -s 1 -d 2 -p cbr -e 1000 -c 3 -i 25 -a 3 -x {1.0 3.0 25 ------- null}
- -t 1.125 -s 1 -d 2 -p cbr -e 1000 -c 3 -i 25 -a 3 -x {1.0 3.0 25 ------- null}
h -t 1.125 -s 1 -d 2 -p cbr -e 1000 -c 3 -i 25 -a 3 -x {1.0 3.0 -1 ------- null}
- -t 1.126 -s 2 -d 3 -p cbr -e 1000 -c 3 -i 21 -a 3 -x {1.0 3.0 21 ------- null}
h -t 1.126 -s 2 -d 3 -p cbr -e 1000 -c 3 -i 21 -a 3 -x {1.0 3.0 -1 ------- null}
r -t 1.129 -s 1 -d 2 -p cbr -e 1000 -c 3 -i 23 -a 3 -x {1.0 3.0 23 ------- null}
+ -t 1.129 -s 2 -d 3 -p cbr -e 1000 -c 3 -i 23 -a 3 -x {1.0 3.0 23 ------- null}
+ -t 1.13 -s 1 -d 2 -p cbr -e 1000 -c 3 -i 26 -a 3 -x {1.0 3.0 26 ------- null}
- -t 1.13 -s 1 -d 2 -p cbr -e 1000 -c 3 -i 26 -a 3 -x {1.0 3.0 26 ------- null}
h -t 1.13 -s 1 -d 2 -p cbr -e 1000 -c 3 -i 26 -a 3 -x {1.0 3.0 -1 ------- null}
r -t 1.13 -s 2 -d 3 -p cbr -e 1000 -c 3 -i 17 -a 3 -x {1.0 3.0 17 ------- null}
- -t 1.13133333333334 -s 2 -d 3 -p cbr -e 1000 -c 3 -i 22 -a 3 -x {1.0 3.0 22 ------- null}
h -t 1.13133333333334 -s 2 -d 3 -p cbr -e 1000 -c 3 -i 22 -a 3 -x {1.0 3.0 -1 ------- null}
r -t 1.134 -s 1 -d 2 -p cbr -e 1000 -c 3 -i 24 -a 3 -x {1.0 3.0 24 ------- null}
+ -t 1.134 -s 2 -d 3 -p cbr -e 1000 -c 3 -i 24 -a 3 -x {1.0 3.0 24 ------- null}
+ -t 1.135 -s 1 -d 2 -p cbr -e 1000 -c 3 -i 27 -a 3 -x {1.0 3.0 27 ------- null}
- -t 1.135 -s 1 -d 2 -p cbr -e 1000 -c 3 -i 27 -a 3 -x {1.0 3.0 27 ------- null}
h -t 1.135 -s 1 -d 2 -p cbr -e 1000 -c 3 -i 27 -a 3 -x {1.0 3.0 -1 ------- null}
r -t 1.13533333333333 -s 2 -d 3 -p cbr -e 1000 -c 3 -i 18 -a 3 -x {1.0 3.0 18 ------- null}
- -t 1.13666666666667 -s 2 -d 3 -p cbr -e 1000 -c 3 -i 23 -a 3 -x {1.0 3.0 23 ------- null}
h -t 1.13666666666667 -s 2 -d 3 -p cbr -e 1000 -c 3 -i 23 -a 3 -x {1.0 3.0 -1 ------- null}
r -t 1.139 -s 1 -d 2 -p cbr -e 1000 -c 3 -i 25 -a 3 -x {1.0 3.0 25 ------- null}
+ -t 1.139 -s 2 -d 3 -p cbr -e 1000 -c 3 -i 25 -a 3 -x {1.0 3.0 25 ------- null}
+ -t 1.14 -s 1 -d 2 -p cbr -e 1000 -c 3 -i 28 -a 3 -x {1.0 3.0 28 ------- null}
- -t 1.14 -s 1 -d 2 -p cbr -e 1000 -c 3 -i 28 -a 3 -x {1.0 3.0 28 ------- null}
h -t 1.14 -s 1 -d 2 -p cbr -e 1000 -c 3 -i 28 -a 3 -x {1.0 3.0 -1 ------- null}
r -t 1.14066666666667 -s 2 -d 3 -p cbr -e 1000 -c 3 -i 19 -a 3 -x {1.0 3.0 19 ------- null}
- -t 1.142 -s 2 -d 3 -p cbr -e 1000 -c 3 -i 24 -a 3 -x {1.0 3.0 24 ------- null}
h -t 1.142 -s 2 -d 3 -p cbr -e 1000 -c 3 -i 24 -a 3 -x {1.0 3.0 -1 ------- null}
r -t 1.144 -s 1 -d 2 -p cbr -e 1000 -c 3 -i 26 -a 3 -x {1.0 3.0 26 ------- null}
+ -t 1.144 -s 2 -d 3 -p cbr -e 1000 -c 3 -i 26 -a 3 -x {1.0 3.0 26 ------- null}
+ -t 1.145 -s 1 -d 2 -p cbr -e 1000 -c 3 -i 29 -a 3 -x {1.0 3.0 29 ------- null}
- -t 1.145 -s 1 -d 2 -p cbr -e 1000 -c 3 -i 29 -a 3 -x {1.0 3.0 29 ------- null}
h -t 1.145 -s 1 -d 2 -p cbr -e 1000 -c 3 -i 29 -a 3 -x {1.0 3.0 -1 ------- null}
r -t 1.146 -s 2 -d 3 -p cbr -e 1000 -c 3 -i 20 -a 3 -x {1.0 3.0 20 ------- null}
- -t 1.14733333333334 -s 2 -d 3 -p cbr -e 1000 -c 3 -i 25 -a 3 -x {1.0 3.0 25 ------- null}
h -t 1.14733333333334 -s 2 -d 3 -p cbr -e 1000 -c 3 -i 25 -a 3 -x {1.0 3.0 -1 ------- null}
r -t 1.149 -s 1 -d 2 -p cbr -e 1000 -c 3 -i 27 -a 3 -x {1.0 3.0 27 ------- null}
+ -t 1.149 -s 2 -d 3 -p cbr -e 1000 -c 3 -i 27 -a 3 -x {1.0 3.0 27 ------- null}
+ -t 1.15 -s 1 -d 2 -p cbr -e 1000 -c 3 -i 30 -a 3 -x {1.0 3.0 30 ------- null}
- -t 1.15 -s 1 -d 2 -p cbr -e 1000 -c 3 -i 30 -a 3 -x {1.0 3.0 30 ------- null}
h -t 1.15 -s 1 -d 2 -p cbr -e 1000 -c 3 -i 30 -a 3 -x {1.0 3.0 -1 ------- null}
r -t 1.15133333333334 -s 2 -d 3 -p cbr -e 1000 -c 3 -i 21 -a 3 -x {1.0 3.0 21 ------- null}
- -t 1.15266666666667 -s 2 -d 3 -p cbr -e 1000 -c 3 -i 26 -a 3 -x {1.0 3.0 26 ------- null}
h -t 1.15266666666667 -s 2 -d 3 -p cbr -e 1000 -c 3 -i 26 -a 3 -x {1.0 3.0 -1 ------- null}
r -t 1.154 -s 1 -d 2 -p cbr -e 1000 -c 3 -i 28 -a 3 -x {1.0 3.0 28 ------- null}
+ -t 1.154 -s 2 -d 3 -p cbr -e 1000 -c 3 -i 28 -a 3 -x {1.0 3.0 28 ------- null}
+ -t 1.155 -s 1 -d 2 -p cbr -e 1000 -c 3 -i 31 -a 3 -x {1.0 3.0 31 ------- null}
- -t 1.155 -s 1 -d 2 -p cbr -e 1000 -c 3 -i 31 -a 3 -x {1.0 3.0 31 ------- null}
h -t 1.155 -s 1 -d 2 -p cbr -e 1000 -c 3 -i 31 -a 3 -x {1.0 3.0 -1 ------- null}
r -t 1.15666666666667 -s 2 -d 3 -p cbr -e 1000 -c 3 -i 22 -a 3 -x {1.0 3.0 22 ------- null}
- -t 1.158 -s 2 -d 3 -p cbr -e 1000 -c 3 -i 27 -a 3 -x {1.0 3.0 27 ------- null}
h -t 1.158 -s 2 -d 3 -p cbr -e 1000 -c 3 -i 27 -a 3 -x {1.0 3.0 -1 ------- null}
r -t 1.159 -s 1 -d 2 -p cbr -e 1000 -c 3 -i 29 -a 3 -x {1.0 3.0 29 ------- null}
+ -t 1.159 -s 2 -d 3 -p cbr -e 1000 -c 3 -i 29 -a 3 -x {1.0 3.0 29 ------- null}
+ -t 1.16 -s 1 -d 2 -p cbr -e 1000 -c 3 -i 32 -a 3 -x {1.0 3.0 32 ------- null}
- -t 1.16 -s 1 -d 2 -p cbr -e 1000 -c 3 -i 32 -a 3 -x {1.0 3.0 32 ------- null}
h -t 1.16 -s 1 -d 2 -p cbr -e 1000 -c 3 -i 32 -a 3 -x {1.0 3.0 -1 ------- null}
r -t 1.162 -s 2 -d 3 -p cbr -e 1000 -c 3 -i 23 -a 3 -x {1.0 3.0 23 ------- null}
- -t 1.16333333333334 -s 2 -d 3 -p cbr -e 1000 -c 3 -i 28 -a 3 -x {1.0 3.0 28 ------- null}
h -t 1.16333333333334 -s 2 -d 3 -p cbr -e 1000 -c 3 -i 28 -a 3 -x {1.0 3.0 -1 ------- null}
r -t 1.164 -s 1 -d 2 -p cbr -e 1000 -c 3 -i 30 -a 3 -x {1.0 3.0 30 ------- null}
+ -t 1.164 -s 2 -d 3 -p cbr -e 1000 -c 3 -i 30 -a 3 -x {1.0 3.0 30 ------- null}
+ -t 1.165 -s 1 -d 2 -p cbr -e 1000 -c 3 -i 33 -a 3 -x {1.0 3.0 33 ------- null}
- -t 1.165 -s 1 -d 2 -p cbr -e 1000 -c 3 -i 33 -a 3 -x {1.0 3.0 33 ------- null}
h -t 1.165 -s 1 -d 2 -p cbr -e 1000 -c 3 -i 33 -a 3 -x {1.0 3.0 -1 ------- null}
r -t 1.16733333333334 -s 2 -d 3 -p cbr -e 1000 -c 3 -i 24 -a 3 -x {1.0 3.0 24 ------- null}
- -t 1.16866666666667 -s 2 -d 3 -p cbr -e 1000 -c 3 -i 29 -a 3 -x {1.0 3.0 29 ------- null}
h -t 1.16866666666667 -s 2 -d 3 -p cbr -e 1000 -c 3 -i 29 -a 3 -x {1.0 3.0 -1 ------- null}
r -t 1.169 -s 1 -d 2 -p cbr -e 1000 -c 3 -i 31 -a 3 -x {1.0 3.0 31 ------- null}
+ -t 1.169 -s 2 -d 3 -p cbr -e 1000 -c 3 -i 31 -a 3 -x {1.0 3.0 31 ------- null}
+ -t 1.17 -s 1 -d 2 -p cbr -e 1000 -c 3 -i 34 -a 3 -x {1.0 3.0 34 ------- null}
- -t 1.17 -s 1 -d 2 -p cbr -e 1000 -c 3 -i 34 -a 3 -x {1.0 3.0 34 ------- null}
h -t 1.17 -s 1 -d 2 -p cbr -e 1000 -c 3 -i 34 -a 3 -x {1.0 3.0 -1 ------- null}
r -t 1.17266666666667 -s 2 -d 3 -p cbr -e 1000 -c 3 -i 25 -a 3 -x {1.0 3.0 25 ------- null}
r -t 1.174 -s 1 -d 2 -p cbr -e 1000 -c 3 -i 32 -a 3 -x {1.0 3.0 32 ------- null}
+ -t 1.174 -s 2 -d 3 -p cbr -e 1000 -c 3 -i 32 -a 3 -x {1.0 3.0 32 ------- null}
- -t 1.174 -s 2 -d 3 -p cbr -e 1000 -c 3 -i 30 -a 3 -x {1.0 3.0 30 ------- null}
h -t 1.174 -s 2 -d 3 -p cbr -e 1000 -c 3 -i 30 -a 3 -x {1.0 3.0 -1 ------- null}
+ -t 1.175 -s 1 -d 2 -p cbr -e 1000 -c 3 -i 35 -a 3 -x {1.0 3.0 35 ------- null}
- -t 1.175 -s 1 -d 2 -p cbr -e 1000 -c 3 -i 35 -a 3 -x {1.0 3.0 35 ------- null}
h -t 1.175 -s 1 -d 2 -p cbr -e 1000 -c 3 -i 35 -a 3 -x {1.0 3.0 -1 ------- null}
r -t 1.178 -s 2 -d 3 -p cbr -e 1000 -c 3 -i 26 -a 3 -x {1.0 3.0 26 ------- null}
r -t 1.179 -s 1 -d 2 -p cbr -e 1000 -c 3 -i 33 -a 3 -x {1.0 3.0 33 ------- null}
+ -t 1.179 -s 2 -d 3 -p cbr -e 1000 -c 3 -i 33 -a 3 -x {1.0 3.0 33 ------- null}
- -t 1.17933333333334 -s 2 -d 3 -p cbr -e 1000 -c 3 -i 31 -a 3 -x {1.0 3.0 31 ------- null}
h -t 1.17933333333334 -s 2 -d 3 -p cbr -e 1000 -c 3 -i 31 -a 3 -x {1.0 3.0 -1 ------- null}
+ -t 1.18 -s 1 -d 2 -p cbr -e 1000 -c 3 -i 36 -a 3 -x {1.0 3.0 36 ------- null}
- -t 1.18 -s 1 -d 2 -p cbr -e 1000 -c 3 -i 36 -a 3 -x {1.0 3.0 36 ------- null}
h -t 1.18 -s 1 -d 2 -p cbr -e 1000 -c 3 -i 36 -a 3 -x {1.0 3.0 -1 ------- null}
r -t 1.18333333333334 -s 2 -d 3 -p cbr -e 1000 -c 3 -i 27 -a 3 -x {1.0 3.0 27 ------- null}
r -t 1.184 -s 1 -d 2 -p cbr -e 1000 -c 3 -i 34 -a 3 -x {1.0 3.0 34 ------- null}
+ -t 1.184 -s 2 -d 3 -p cbr -e 1000 -c 3 -i 34 -a 3 -x {1.0 3.0 34 ------- null}
- -t 1.18466666666667 -s 2 -d 3 -p cbr -e 1000 -c 3 -i 32 -a 3 -x {1.0 3.0 32 ------- null}
h -t 1.18466666666667 -s 2 -d 3 -p cbr -e 1000 -c 3 -i 32 -a 3 -x {1.0 3.0 -1 ------- null}
+ -t 1.185 -s 1 -d 2 -p cbr -e 1000 -c 3 -i 37 -a 3 -x {1.0 3.0 37 ------- null}
- -t 1.185 -s 1 -d 2 -p cbr -e 1000 -c 3 -i 37 -a 3 -x {1.0 3.0 37 ------- null}
h -t 1.185 -s 1 -d 2 -p cbr -e 1000 -c 3 -i 37 -a 3 -x {1.0 3.0 -1 ------- null}
r -t 1.18866666666667 -s 2 -d 3 -p cbr -e 1000 -c 3 -i 28 -a 3 -x {1.0 3.0 28 ------- null}
r -t 1.189 -s 1 -d 2 -p cbr -e 1000 -c 3 -i 35 -a 3 -x {1.0 3.0 35 ------- null}
+ -t 1.189 -s 2 -d 3 -p cbr -e 1000 -c 3 -i 35 -a 3 -x {1.0 3.0 35 ------- null}
+ -t 1.19 -s 1 -d 2 -p cbr -e 1000 -c 3 -i 38 -a 3 -x {1.0 3.0 38 ------- null}
- -t 1.19 -s 1 -d 2 -p cbr -e 1000 -c 3 -i 38 -a 3 -x {1.0 3.0 38 ------- null}
h -t 1.19 -s 1 -d 2 -p cbr -e 1000 -c 3 -i 38 -a 3 -x {1.0 3.0 -1 ------- null}
- -t 1.19 -s 2 -d 3 -p cbr -e 1000 -c 3 -i 33 -a 3 -x {1.0 3.0 33 ------- null}
h -t 1.19 -s 2 -d 3 -p cbr -e 1000 -c 3 -i 33 -a 3 -x {1.0 3.0 -1 ------- null}
r -t 1.194 -s 1 -d 2 -p cbr -e 1000 -c 3 -i 36 -a 3 -x {1.0 3.0 36 ------- null}
+ -t 1.194 -s 2 -d 3 -p cbr -e 1000 -c 3 -i 36 -a 3 -x {1.0 3.0 36 ------- null}
r -t 1.194 -s 2 -d 3 -p cbr -e 1000 -c 3 -i 29 -a 3 -x {1.0 3.0 29 ------- null}
+ -t 1.195 -s 1 -d 2 -p cbr -e 1000 -c 3 -i 39 -a 3 -x {1.0 3.0 39 ------- null}
- -t 1.195 -s 1 -d 2 -p cbr -e 1000 -c 3 -i 39 -a 3 -x {1.0 3.0 39 ------- null}
h -t 1.195 -s 1 -d 2 -p cbr -e 1000 -c 3 -i 39 -a 3 -x {1.0 3.0 -1 ------- null}
- -t 1.19533333333334 -s 2 -d 3 -p cbr -e 1000 -c 3 -i 34 -a 3 -x {1.0 3.0 34 ------- null}
h -t 1.19533333333334 -s 2 -d 3 -p cbr -e 1000 -c 3 -i 34 -a 3 -x {1.0 3.0 -1 ------- null}
r -t 1.199 -s 1 -d 2 -p cbr -e 1000 -c 3 -i 37 -a 3 -x {1.0 3.0 37 ------- null}
+ -t 1.199 -s 2 -d 3 -p cbr -e 1000 -c 3 -i 37 -a 3 -x {1.0 3.0 37 ------- null}
r -t 1.19933333333334 -s 2 -d 3 -p cbr -e 1000 -c 3 -i 30 -a 3 -x {1.0 3.0 30 ------- null}
+ -t 1.2 -s 1 -d 2 -p cbr -e 1000 -c 3 -i 40 -a 3 -x {1.0 3.0 40 ------- null}
- -t 1.2 -s 1 -d 2 -p cbr -e 1000 -c 3 -i 40 -a 3 -x {1.0 3.0 40 ------- null}
h -t 1.2 -s 1 -d 2 -p cbr -e 1000 -c 3 -i 40 -a 3 -x {1.0 3.0 -1 ------- null}
- -t 1.20066666666667 -s 2 -d 3 -p cbr -e 1000 -c 3 -i 35 -a 3 -x {1.0 3.0 35 ------- null}
h -t 1.20066666666667 -s 2 -d 3 -p cbr -e 1000 -c 3 -i 35 -a 3 -x {1.0 3.0 -1 ------- null}
r -t 1.204 -s 1 -d 2 -p cbr -e 1000 -c 3 -i 38 -a 3 -x {1.0 3.0 38 ------- null}
+ -t 1.204 -s 2 -d 3 -p cbr -e 1000 -c 3 -i 38 -a 3 -x {1.0 3.0 38 ------- null}
r -t 1.20466666666667 -s 2 -d 3 -p cbr -e 1000 -c 3 -i 31 -a 3 -x {1.0 3.0 31 ------- null}
+ -t 1.205 -s 1 -d 2 -p cbr -e 1000 -c 3 -i 41 -a 3 -x {1.0 3.0 41 ------- null}
- -t 1.205 -s 1 -d 2 -p cbr -e 1000 -c 3 -i 41 -a 3 -x {1.0 3.0 41 ------- null}
h -t 1.205 -s 1 -d 2 -p cbr -e 1000 -c 3 -i 41 -a 3 -x {1.0 3.0 -1 ------- null}
- -t 1.206 -s 2 -d 3 -p cbr -e 1000 -c 3 -i 36 -a 3 -x {1.0 3.0 36 ------- null}
h -t 1.206 -s 2 -d 3 -p cbr -e 1000 -c 3 -i 36 -a 3 -x {1.0 3.0 -1 ------- null}
r -t 1.209 -s 1 -d 2 -p cbr -e 1000 -c 3 -i 39 -a 3 -x {1.0 3.0 39 ------- null}
+ -t 1.209 -s 2 -d 3 -p cbr -e 1000 -c 3 -i 39 -a 3 -x {1.0 3.0 39 ------- null}
+ -t 1.21 -s 1 -d 2 -p cbr -e 1000 -c 3 -i 42 -a 3 -x {1.0 3.0 42 ------- null}
- -t 1.21 -s 1 -d 2 -p cbr -e 1000 -c 3 -i 42 -a 3 -x {1.0 3.0 42 ------- null}
h -t 1.21 -s 1 -d 2 -p cbr -e 1000 -c 3 -i 42 -a 3 -x {1.0 3.0 -1 ------- null}
r -t 1.21 -s 2 -d 3 -p cbr -e 1000 -c 3 -i 32 -a 3 -x {1.0 3.0 32 ------- null}
- -t 1.21133333333334 -s 2 -d 3 -p cbr -e 1000 -c 3 -i 37 -a 3 -x {1.0 3.0 37 ------- null}
h -t 1.21133333333334 -s 2 -d 3 -p cbr -e 1000 -c 3 -i 37 -a 3 -x {1.0 3.0 -1 ------- null}
r -t 1.214 -s 1 -d 2 -p cbr -e 1000 -c 3 -i 40 -a 3 -x {1.0 3.0 40 ------- null}
+ -t 1.214 -s 2 -d 3 -p cbr -e 1000 -c 3 -i 40 -a 3 -x {1.0 3.0 40 ------- null}
+ -t 1.215 -s 1 -d 2 -p cbr -e 1000 -c 3 -i 43 -a 3 -x {1.0 3.0 43 ------- null}
- -t 1.215 -s 1 -d 2 -p cbr -e 1000 -c 3 -i 43 -a 3 -x {1.0 3.0 43 ------- null}
h -t 1.215 -s 1 -d 2 -p cbr -e 1000 -c 3 -i 43 -a 3 -x {1.0 3.0 -1 ------- null}
r -t 1.21533333333334 -s 2 -d 3 -p cbr -e 1000 -c 3 -i 33 -a 3 -x {1.0 3.0 33 ------- null}
- -t 1.21666666666667 -s 2 -d 3 -p cbr -e 1000 -c 3 -i 38 -a 3 -x {1.0 3.0 38 ------- null}
h -t 1.21666666666667 -s 2 -d 3 -p cbr -e 1000 -c 3 -i 38 -a 3 -x {1.0 3.0 -1 ------- null}
r -t 1.219 -s 1 -d 2 -p cbr -e 1000 -c 3 -i 41 -a 3 -x {1.0 3.0 41 ------- null}
+ -t 1.219 -s 2 -d 3 -p cbr -e 1000 -c 3 -i 41 -a 3 -x {1.0 3.0 41 ------- null}
+ -t 1.22 -s 1 -d 2 -p cbr -e 1000 -c 3 -i 44 -a 3 -x {1.0 3.0 44 ------- null}
- -t 1.22 -s 1 -d 2 -p cbr -e 1000 -c 3 -i 44 -a 3 -x {1.0 3.0 44 ------- null}
h -t 1.22 -s 1 -d 2 -p cbr -e 1000 -c 3 -i 44 -a 3 -x {1.0 3.0 -1 ------- null}
r -t 1.22066666666667 -s 2 -d 3 -p cbr -e 1000 -c 3 -i 34 -a 3 -x {1.0 3.0 34 ------- null}
- -t 1.222 -s 2 -d 3 -p cbr -e 1000 -c 3 -i 39 -a 3 -x {1.0 3.0 39 ------- null}
h -t 1.222 -s 2 -d 3 -p cbr -e 1000 -c 3 -i 39 -a 3 -x {1.0 3.0 -1 ------- null}
r -t 1.224 -s 1 -d 2 -p cbr -e 1000 -c 3 -i 42 -a 3 -x {1.0 3.0 42 ------- null}
+ -t 1.224 -s 2 -d 3 -p cbr -e 1000 -c 3 -i 42 -a 3 -x {1.0 3.0 42 ------- null}
+ -t 1.225 -s 1 -d 2 -p cbr -e 1000 -c 3 -i 45 -a 3 -x {1.0 3.0 45 ------- null}
- -t 1.225 -s 1 -d 2 -p cbr -e 1000 -c 3 -i 45 -a 3 -x {1.0 3.0 45 ------- null}
h -t 1.225 -s 1 -d 2 -p cbr -e 1000 -c 3 -i 45 -a 3 -x {1.0 3.0 -1 ------- null}
r -t 1.226 -s 2 -d 3 -p cbr -e 1000 -c 3 -i 35 -a 3 -x {1.0 3.0 35 ------- null}
- -t 1.22733333333334 -s 2 -d 3 -p cbr -e 1000 -c 3 -i 40 -a 3 -x {1.0 3.0 40 ------- null}
h -t 1.22733333333334 -s 2 -d 3 -p cbr -e 1000 -c 3 -i 40 -a 3 -x {1.0 3.0 -1 ------- null}
r -t 1.229 -s 1 -d 2 -p cbr -e 1000 -c 3 -i 43 -a 3 -x {1.0 3.0 43 ------- null}
+ -t 1.229 -s 2 -d 3 -p cbr -e 1000 -c 3 -i 43 -a 3 -x {1.0 3.0 43 ------- null}
+ -t 1.23 -s 1 -d 2 -p cbr -e 1000 -c 3 -i 46 -a 3 -x {1.0 3.0 46 ------- null}
- -t 1.23 -s 1 -d 2 -p cbr -e 1000 -c 3 -i 46 -a 3 -x {1.0 3.0 46 ------- null}
h -t 1.23 -s 1 -d 2 -p cbr -e 1000 -c 3 -i 46 -a 3 -x {1.0 3.0 -1 ------- null}
r -t 1.23133333333334 -s 2 -d 3 -p cbr -e 1000 -c 3 -i 36 -a 3 -x {1.0 3.0 36 ------- null}
- -t 1.23266666666667 -s 2 -d 3 -p cbr -e 1000 -c 3 -i 41 -a 3 -x {1.0 3.0 41 ------- null}
h -t 1.23266666666667 -s 2 -d 3 -p cbr -e 1000 -c 3 -i 41 -a 3 -x {1.0 3.0 -1 ------- null}
r -t 1.234 -s 1 -d 2 -p cbr -e 1000 -c 3 -i 44 -a 3 -x {1.0 3.0 44 ------- null}
+ -t 1.234 -s 2 -d 3 -p cbr -e 1000 -c 3 -i 44 -a 3 -x {1.0 3.0 44 ------- null}
+ -t 1.23499999999999 -s 1 -d 2 -p cbr -e 1000 -c 3 -i 47 -a 3 -x {1.0 3.0 47 ------- null}
- -t 1.23499999999999 -s 1 -d 2 -p cbr -e 1000 -c 3 -i 47 -a 3 -x {1.0 3.0 47 ------- null}
h -t 1.23499999999999 -s 1 -d 2 -p cbr -e 1000 -c 3 -i 47 -a 3 -x {1.0 3.0 -1 ------- null}